+ 1 0 3 tcp 40 ------- 2 0.0 4.0 0 0
- 1 0 3 tcp 40 ------- 2 0.0 4.0 0 0
r 1.00014 0 3 tcp 40 ------- 2 0.0 4.0 0 0
+ 1.00014 3 4 tcp 40 ------- 2 0.0 4.0 0 0
- 1.00014 3 4 tcp 40 ------- 2 0.0 4.0 0 0
r 1.10054 3 4 tcp 40 ------- 2 0.0 4.0 0 0
+ 1.10054 4 3 ack 40 ------- 2 4.0 0.0 0 1
- 1.10054 4 3 ack 40 ------- 2 4.0 0.0 0 1
+ 1.18 2 3 tcp 40 ------- 1 2.0 4.2 0 2
- 1.18 2 3 tcp 40 ------- 1 2.0 4.2 0 2
r 1.18014 2 3 tcp 40 ------- 1 2.0 4.2 0 2
+ 1.18014 3 4 tcp 40 ------- 1 2.0 4.2 0 2
- 1.18014 3 4 tcp 40 ------- 1 2.0 4.2 0 2
+ 1.2 1 3 tcp 40 ------- 3 1.0 4.1 0 3
- 1.2 1 3 tcp 40 ------- 3 1.0 4.1 0 3
r 1.20014 1 3 tcp 40 ------- 3 1.0 4.1 0 3
+ 1.20014 3 4 tcp 40 ------- 3 1.0 4.1 0 3
- 1.20014 3 4 tcp 40 ------- 3 1.0 4.1 0 3
r 1.20094 4 3 ack 40 ------- 2 4.0 0.0 0 1
+ 1.20094 3 0 ack 40 ------- 2 4.0 0.0 0 1
- 1.20094 3 0 ack 40 ------- 2 4.0 0.0 0 1
r 1.20108 3 0 ack 40 ------- 2 4.0 0.0 0 1
+ 1.20108 0 3 tcp 1040 ------- 2 0.0 4.0 1 4
- 1.20108 0 3 tcp 1040 ------- 2 0.0 4.0 1 4
+ 1.20108 0 3 tcp 1040 ------- 2 0.0 4.0 2 5
- 1.20212 0 3 tcp 1040 ------- 2 0.0 4.0 2 5
r 1.20222 0 3 tcp 1040 ------- 2 0.0 4.0 1 4
+ 1.20222 3 4 tcp 1040 ------- 2 0.0 4.0 1 4
- 1.20222 3 4 tcp 1040 ------- 2 0.0 4.0 1 4
r 1.20326 0 3 tcp 1040 ------- 2 0.0 4.0 2 5
+ 1.20326 3 4 tcp 1040 ------- 2 0.0 4.0 2 5
- 1.21262 3 4 tcp 1040 ------- 2 0.0 4.0 2 5
r 1.28054 3 4 tcp 40 ------- 1 2.0 4.2 0 2
+ 1.28054 4 3 ack 40 ------- 1 4.2 2.0 0 6
- 1.28054 4 3 ack 40 ------- 1 4.2 2.0 0 6
r 1.30054 3 4 tcp 40 ------- 3 1.0 4.1 0 3
+ 1.30054 4 3 ack 40 ------- 3 4.1 1.0 0 7
- 1.30054 4 3 ack 40 ------- 3 4.1 1.0 0 7
r 1.31262 3 4 tcp 1040 ------- 2 0.0 4.0 1 4
+ 1.31262 4 3 ack 40 ------- 2 4.0 0.0 1 8
- 1.31262 4 3 ack 40 ------- 2 4.0 0.0 1 8
r 1.32302 3 4 tcp 1040 ------- 2 0.0 4.0 2 5
+ 1.32302 4 3 ack 40 ------- 2 4.0 0.0 2 9
- 1.32302 4 3 ack 40 ------- 2 4.0 0.0 2 9
r 1.38094 4 3 ack 40 ------- 1 4.2 2.0 0 6
+ 1.38094 3 2 ack 40 ------- 1 4.2 2.0 0 6
- 1.38094 3 2 ack 40 ------- 1 4.2 2.0 0 6
r 1.38108 3 2 ack 40 ------- 1 4.2 2.0 0 6
+ 1.38108 2 3 tcp 1040 ------- 1 2.0 4.2 1 10
- 1.38108 2 3 tcp 1040 ------- 1 2.0 4.2 1 10
+ 1.38108 2 3 tcp 1040 ------- 1 2.0 4.2 2 11
- 1.38212 2 3 tcp 1040 ------- 1 2.0 4.2 2 11
r 1.38222 2 3 tcp 1040 ------- 1 2.0 4.2 1 10
+ 1.38222 3 4 tcp 1040 ------- 1 2.0 4.2 1 10
- 1.38222 3 4 tcp 1040 ------- 1 2.0 4.2 1 10
r 1.38326 2 3 tcp 1040 ------- 1 2.0 4.2 2 11
+ 1.38326 3 4 tcp 1040 ------- 1 2.0 4.2 2 11
- 1.39262 3 4 tcp 1040 ------- 1 2.0 4.2 2 11
r 1.40094 4 3 ack 40 ------- 3 4.1 1.0 0 7
+ 1.40094 3 1 ack 40 ------- 3 4.1 1.0 0 7
- 1.40094 3 1 ack 40 ------- 3 4.1 1.0 0 7
r 1.40108 3 1 ack 40 ------- 3 4.1 1.0 0 7
+ 1.40108 1 3 tcp 1040 ------- 3 1.0 4.1 1 12
- 1.40108 1 3 tcp 1040 ------- 3 1.0 4.1 1 12
+ 1.40108 1 3 tcp 1040 ------- 3 1.0 4.1 2 13
- 1.40212 1 3 tcp 1040 ------- 3 1.0 4.1 2 13
r 1.40222 1 3 tcp 1040 ------- 3 1.0 4.1 1 12
+ 1.40222 3 4 tcp 1040 ------- 3 1.0 4.1 1 12
- 1.40302 3 4 tcp 1040 ------- 3 1.0 4.1 1 12
r 1.40326 1 3 tcp 1040 ------- 3 1.0 4.1 2 13
+ 1.40326 3 4 tcp 1040 ------- 3 1.0 4.1 2 13
r 1.41302 4 3 ack 40 ------- 2 4.0 0.0 1 8
+ 1.41302 3 0 ack 40 ------- 2 4.0 0.0 1 8
- 1.41302 3 0 ack 40 ------- 2 4.0 0.0 1 8
r 1.41316 3 0 ack 40 ------- 2 4.0 0.0 1 8
+ 1.41316 0 3 tcp 1040 ------- 2 0.0 4.0 3 14
- 1.41316 0 3 tcp 1040 ------- 2 0.0 4.0 3 14
+ 1.41316 0 3 tcp 1040 ------- 2 0.0 4.0 4 15
- 1.41342 3 4 tcp 1040 ------- 3 1.0 4.1 2 13
- 1.4142 0 3 tcp 1040 ------- 2 0.0 4.0 4 15
r 1.4143 0 3 tcp 1040 ------- 2 0.0 4.0 3 14
+ 1.4143 3 4 tcp 1040 ------- 2 0.0 4.0 3 14
r 1.41534 0 3 tcp 1040 ------- 2 0.0 4.0 4 15
+ 1.41534 3 4 tcp 1040 ------- 2 0.0 4.0 4 15
r 1.42342 4 3 ack 40 ------- 2 4.0 0.0 2 9
+ 1.42342 3 0 ack 40 ------- 2 4.0 0.0 2 9
- 1.42342 3 0 ack 40 ------- 2 4.0 0.0 2 9
r 1.42356 3 0 ack 40 ------- 2 4.0 0.0 2 9
+ 1.42356 0 3 tcp 1040 ------- 2 0.0 4.0 5 16
- 1.42356 0 3 tcp 1040 ------- 2 0.0 4.0 5 16
+ 1.42356 0 3 tcp 1040 ------- 2 0.0 4.0 6 17
- 1.42382 3 4 tcp 1040 ------- 2 0.0 4.0 3 14
- 1.4246 0 3 tcp 1040 ------- 2 0.0 4.0 6 17
r 1.4247 0 3 tcp 1040 ------- 2 0.0 4.0 5 16
+ 1.4247 3 4 tcp 1040 ------- 2 0.0 4.0 5 16
r 1.42574 0 3 tcp 1040 ------- 2 0.0 4.0 6 17
+ 1.42574 3 4 tcp 1040 ------- 2 0.0 4.0 6 17
- 1.43422 3 4 tcp 1040 ------- 2 0.0 4.0 4 15
- 1.44462 3 4 tcp 1040 ------- 2 0.0 4.0 5 16
- 1.45502 3 4 tcp 1040 ------- 2 0.0 4.0 6 17
r 1.49262 3 4 tcp 1040 ------- 1 2.0 4.2 1 10
+ 1.49262 4 3 ack 40 ------- 1 4.2 2.0 1 18
- 1.49262 4 3 ack 40 ------- 1 4.2 2.0 1 18
r 1.50302 3 4 tcp 1040 ------- 1 2.0 4.2 2 11
+ 1.50302 4 3 ack 40 ------- 1 4.2 2.0 2 19
- 1.50302 4 3 ack 40 ------- 1 4.2 2.0 2 19
r 1.51342 3 4 tcp 1040 ------- 3 1.0 4.1 1 12
+ 1.51342 4 3 ack 40 ------- 3 4.1 1.0 1 20
- 1.51342 4 3 ack 40 ------- 3 4.1 1.0 1 20
r 1.52382 3 4 tcp 1040 ------- 3 1.0 4.1 2 13
+ 1.52382 4 3 ack 40 ------- 3 4.1 1.0 2 21
- 1.52382 4 3 ack 40 ------- 3 4.1 1.0 2 21
r 1.53422 3 4 tcp 1040 ------- 2 0.0 4.0 3 14
+ 1.53422 4 3 ack 40 ------- 2 4.0 0.0 3 22
- 1.53422 4 3 ack 40 ------- 2 4.0 0.0 3 22
r 1.54462 3 4 tcp 1040 ------- 2 0.0 4.0 4 15
+ 1.54462 4 3 ack 40 ------- 2 4.0 0.0 4 23
- 1.54462 4 3 ack 40 ------- 2 4.0 0.0 4 23
r 1.55502 3 4 tcp 1040 ------- 2 0.0 4.0 5 16
+ 1.55502 4 3 ack 40 ------- 2 4.0 0.0 5 24
- 1.55502 4 3 ack 40 ------- 2 4.0 0.0 5 24
r 1.56542 3 4 tcp 1040 ------- 2 0.0 4.0 6 17
+ 1.56542 4 3 ack 40 ------- 2 4.0 0.0 6 25
- 1.56542 4 3 ack 40 ------- 2 4.0 0.0 6 25
r 1.59302 4 3 ack 40 ------- 1 4.2 2.0 1 18
+ 1.59302 3 2 ack 40 ------- 1 4.2 2.0 1 18
- 1.59302 3 2 ack 40 ------- 1 4.2 2.0 1 18
r 1.59316 3 2 ack 40 ------- 1 4.2 2.0 1 18
+ 1.59316 2 3 tcp 1040 ------- 1 2.0 4.2 3 26
- 1.59316 2 3 tcp 1040 ------- 1 2.0 4.2 3 26
+ 1.59316 2 3 tcp 1040 ------- 1 2.0 4.2 4 27
- 1.5942 2 3 tcp 1040 ------- 1 2.0 4.2 4 27
r 1.5943 2 3 tcp 1040 ------- 1 2.0 4.2 3 26
+ 1.5943 3 4 tcp 1040 ------- 1 2.0 4.2 3 26
- 1.5943 3 4 tcp 1040 ------- 1 2.0 4.2 3 26
r 1.59534 2 3 tcp 1040 ------- 1 2.0 4.2 4 27
+ 1.59534 3 4 tcp 1040 ------- 1 2.0 4.2 4 27
r 1.60342 4 3 ack 40 ------- 1 4.2 2.0 2 19
+ 1.60342 3 2 ack 40 ------- 1 4.2 2.0 2 19
- 1.60342 3 2 ack 40 ------- 1 4.2 2.0 2 19
r 1.60356 3 2 ack 40 ------- 1 4.2 2.0 2 19
+ 1.60356 2 3 tcp 1040 ------- 1 2.0 4.2 5 28
- 1.60356 2 3 tcp 1040 ------- 1 2.0 4.2 5 28
+ 1.60356 2 3 tcp 1040 ------- 1 2.0 4.2 6 29
- 1.6046 2 3 tcp 1040 ------- 1 2.0 4.2 6 29
- 1.6047 3 4 tcp 1040 ------- 1 2.0 4.2 4 27
r 1.6047 2 3 tcp 1040 ------- 1 2.0 4.2 5 28
+ 1.6047 3 4 tcp 1040 ------- 1 2.0 4.2 5 28
r 1.60574 2 3 tcp 1040 ------- 1 2.0 4.2 6 29
+ 1.60574 3 4 tcp 1040 ------- 1 2.0 4.2 6 29
r 1.61382 4 3 ack 40 ------- 3 4.1 1.0 1 20
+ 1.61382 3 1 ack 40 ------- 3 4.1 1.0 1 20
- 1.61382 3 1 ack 40 ------- 3 4.1 1.0 1 20
r 1.61396 3 1 ack 40 ------- 3 4.1 1.0 1 20
+ 1.61396 1 3 tcp 1040 ------- 3 1.0 4.1 3 30
- 1.61396 1 3 tcp 1040 ------- 3 1.0 4.1 3 30
+ 1.61396 1 3 tcp 1040 ------- 3 1.0 4.1 4 31
- 1.615 1 3 tcp 1040 ------- 3 1.0 4.1 4 31
- 1.6151 3 4 tcp 1040 ------- 1 2.0 4.2 5 28
r 1.6151 1 3 tcp 1040 ------- 3 1.0 4.1 3 30
+ 1.6151 3 4 tcp 1040 ------- 3 1.0 4.1 3 30
r 1.61614 1 3 tcp 1040 ------- 3 1.0 4.1 4 31
+ 1.61614 3 4 tcp 1040 ------- 3 1.0 4.1 4 31
r 1.62422 4 3 ack 40 ------- 3 4.1 1.0 2 21
+ 1.62422 3 1 ack 40 ------- 3 4.1 1.0 2 21
- 1.62422 3 1 ack 40 ------- 3 4.1 1.0 2 21
r 1.62436 3 1 ack 40 ------- 3 4.1 1.0 2 21
+ 1.62436 1 3 tcp 1040 ------- 3 1.0 4.1 5 32
- 1.62436 1 3 tcp 1040 ------- 3 1.0 4.1 5 32
+ 1.62436 1 3 tcp 1040 ------- 3 1.0 4.1 6 33
- 1.6254 1 3 tcp 1040 ------- 3 1.0 4.1 6 33
- 1.6255 3 4 tcp 1040 ------- 1 2.0 4.2 6 29
r 1.6255 1 3 tcp 1040 ------- 3 1.0 4.1 5 32
+ 1.6255 3 4 tcp 1040 ------- 3 1.0 4.1 5 32
r 1.62654 1 3 tcp 1040 ------- 3 1.0 4.1 6 33
+ 1.62654 3 4 tcp 1040 ------- 3 1.0 4.1 6 33
r 1.63462 4 3 ack 40 ------- 2 4.0 0.0 3 22
+ 1.63462 3 0 ack 40 ------- 2 4.0 0.0 3 22
- 1.63462 3 0 ack 40 ------- 2 4.0 0.0 3 22
r 1.63476 3 0 ack 40 ------- 2 4.0 0.0 3 22
+ 1.63476 0 3 tcp 1040 ------- 2 0.0 4.0 7 34
- 1.63476 0 3 tcp 1040 ------- 2 0.0 4.0 7 34
+ 1.63476 0 3 tcp 1040 ------- 2 0.0 4.0 8 35
- 1.6358 0 3 tcp 1040 ------- 2 0.0 4.0 8 35
- 1.6359 3 4 tcp 1040 ------- 3 1.0 4.1 3 30
r 1.6359 0 3 tcp 1040 ------- 2 0.0 4.0 7 34
+ 1.6359 3 4 tcp 1040 ------- 2 0.0 4.0 7 34
r 1.63694 0 3 tcp 1040 ------- 2 0.0 4.0 8 35
+ 1.63694 3 4 tcp 1040 ------- 2 0.0 4.0 8 35
r 1.64502 4 3 ack 40 ------- 2 4.0 0.0 4 23
+ 1.64502 3 0 ack 40 ------- 2 4.0 0.0 4 23
- 1.64502 3 0 ack 40 ------- 2 4.0 0.0 4 23
r 1.64516 3 0 ack 40 ------- 2 4.0 0.0 4 23
+ 1.64516 0 3 tcp 1040 ------- 2 0.0 4.0 9 36
- 1.64516 0 3 tcp 1040 ------- 2 0.0 4.0 9 36
+ 1.64516 0 3 tcp 1040 ------- 2 0.0 4.0 10 37
- 1.6462 0 3 tcp 1040 ------- 2 0.0 4.0 10 37
- 1.6463 3 4 tcp 1040 ------- 3 1.0 4.1 4 31
r 1.6463 0 3 tcp 1040 ------- 2 0.0 4.0 9 36
+ 1.6463 3 4 tcp 1040 ------- 2 0.0 4.0 9 36
r 1.64734 0 3 tcp 1040 ------- 2 0.0 4.0 10 37
+ 1.64734 3 4 tcp 1040 ------- 2 0.0 4.0 10 37
r 1.65542 4 3 ack 40 ------- 2 4.0 0.0 5 24
+ 1.65542 3 0 ack 40 ------- 2 4.0 0.0 5 24
- 1.65542 3 0 ack 40 ------- 2 4.0 0.0 5 24
r 1.65556 3 0 ack 40 ------- 2 4.0 0.0 5 24
+ 1.65556 0 3 tcp 1040 ------- 2 0.0 4.0 11 38
- 1.65556 0 3 tcp 1040 ------- 2 0.0 4.0 11 38
+ 1.65556 0 3 tcp 1040 ------- 2 0.0 4.0 12 39
- 1.6566 0 3 tcp 1040 ------- 2 0.0 4.0 12 39
- 1.6567 3 4 tcp 1040 ------- 3 1.0 4.1 5 32
r 1.6567 0 3 tcp 1040 ------- 2 0.0 4.0 11 38
+ 1.6567 3 4 tcp 1040 ------- 2 0.0 4.0 11 38
r 1.65774 0 3 tcp 1040 ------- 2 0.0 4.0 12 39
+ 1.65774 3 4 tcp 1040 ------- 2 0.0 4.0 12 39
r 1.66582 4 3 ack 40 ------- 2 4.0 0.0 6 25
+ 1.66582 3 0 ack 40 ------- 2 4.0 0.0 6 25
- 1.66582 3 0 ack 40 ------- 2 4.0 0.0 6 25
r 1.66596 3 0 ack 40 ------- 2 4.0 0.0 6 25
+ 1.66596 0 3 tcp 1040 ------- 2 0.0 4.0 13 40
- 1.66596 0 3 tcp 1040 ------- 2 0.0 4.0 13 40
+ 1.66596 0 3 tcp 1040 ------- 2 0.0 4.0 14 41
- 1.667 0 3 tcp 1040 ------- 2 0.0 4.0 14 41
- 1.6671 3 4 tcp 1040 ------- 3 1.0 4.1 6 33
r 1.6671 0 3 tcp 1040 ------- 2 0.0 4.0 13 40
+ 1.6671 3 4 tcp 1040 ------- 2 0.0 4.0 13 40
r 1.66814 0 3 tcp 1040 ------- 2 0.0 4.0 14 41
+ 1.66814 3 4 tcp 1040 ------- 2 0.0 4.0 14 41
d 1.66814 3 4 tcp 1040 ------- 2 0.0 4.0 14 41
- 1.6775 3 4 tcp 1040 ------- 2 0.0 4.0 7 34
- 1.6879 3 4 tcp 1040 ------- 2 0.0 4.0 8 35
- 1.6983 3 4 tcp 1040 ------- 2 0.0 4.0 9 36
r 1.7047 3 4 tcp 1040 ------- 1 2.0 4.2 3 26
+ 1.7047 4 3 ack 40 ------- 1 4.2 2.0 3 42
- 1.7047 4 3 ack 40 ------- 1 4.2 2.0 3 42
- 1.7087 3 4 tcp 1040 ------- 2 0.0 4.0 10 37
r 1.7151 3 4 tcp 1040 ------- 1 2.0 4.2 4 27
+ 1.7151 4 3 ack 40 ------- 1 4.2 2.0 4 43
- 1.7151 4 3 ack 40 ------- 1 4.2 2.0 4 43
- 1.7191 3 4 tcp 1040 ------- 2 0.0 4.0 11 38
r 1.7255 3 4 tcp 1040 ------- 1 2.0 4.2 5 28
+ 1.7255 4 3 ack 40 ------- 1 4.2 2.0 5 44
- 1.7255 4 3 ack 40 ------- 1 4.2 2.0 5 44
- 1.7295 3 4 tcp 1040 ------- 2 0.0 4.0 12 39
r 1.7359 3 4 tcp 1040 ------- 1 2.0 4.2 6 29
+ 1.7359 4 3 ack 40 ------- 1 4.2 2.0 6 45
- 1.7359 4 3 ack 40 ------- 1 4.2 2.0 6 45
- 1.7399 3 4 tcp 1040 ------- 2 0.0 4.0 13 40
r 1.7463 3 4 tcp 1040 ------- 3 1.0 4.1 3 30
+ 1.7463 4 3 ack 40 ------- 3 4.1 1.0 3 46
- 1.7463 4 3 ack 40 ------- 3 4.1 1.0 3 46
r 1.7567 3 4 tcp 1040 ------- 3 1.0 4.1 4 31
+ 1.7567 4 3 ack 40 ------- 3 4.1 1.0 4 47
- 1.7567 4 3 ack 40 ------- 3 4.1 1.0 4 47
r 1.7671 3 4 tcp 1040 ------- 3 1.0 4.1 5 32
+ 1.7671 4 3 ack 40 ------- 3 4.1 1.0 5 48
- 1.7671 4 3 ack 40 ------- 3 4.1 1.0 5 48
r 1.7775 3 4 tcp 1040 ------- 3 1.0 4.1 6 33
+ 1.7775 4 3 ack 40 ------- 3 4.1 1.0 6 49
- 1.7775 4 3 ack 40 ------- 3 4.1 1.0 6 49
r 1.7879 3 4 tcp 1040 ------- 2 0.0 4.0 7 34
+ 1.7879 4 3 ack 40 ------- 2 4.0 0.0 7 50
- 1.7879 4 3 ack 40 ------- 2 4.0 0.0 7 50
r 1.7983 3 4 tcp 1040 ------- 2 0.0 4.0 8 35
+ 1.7983 4 3 ack 40 ------- 2 4.0 0.0 8 51
- 1.7983 4 3 ack 40 ------- 2 4.0 0.0 8 51
r 1.8051 4 3 ack 40 ------- 1 4.2 2.0 3 42
+ 1.8051 3 2 ack 40 ------- 1 4.2 2.0 3 42
- 1.8051 3 2 ack 40 ------- 1 4.2 2.0 3 42
r 1.80524 3 2 ack 40 ------- 1 4.2 2.0 3 42
+ 1.80524 2 3 tcp 1040 ------- 1 2.0 4.2 7 52
- 1.80524 2 3 tcp 1040 ------- 1 2.0 4.2 7 52
+ 1.80524 2 3 tcp 1040 ------- 1 2.0 4.2 8 53
- 1.80628 2 3 tcp 1040 ------- 1 2.0 4.2 8 53
r 1.80638 2 3 tcp 1040 ------- 1 2.0 4.2 7 52
+ 1.80638 3 4 tcp 1040 ------- 1 2.0 4.2 7 52
- 1.80638 3 4 tcp 1040 ------- 1 2.0 4.2 7 52
r 1.80742 2 3 tcp 1040 ------- 1 2.0 4.2 8 53
+ 1.80742 3 4 tcp 1040 ------- 1 2.0 4.2 8 53
r 1.8087 3 4 tcp 1040 ------- 2 0.0 4.0 9 36
+ 1.8087 4 3 ack 40 ------- 2 4.0 0.0 9 54
- 1.8087 4 3 ack 40 ------- 2 4.0 0.0 9 54
r 1.8155 4 3 ack 40 ------- 1 4.2 2.0 4 43
+ 1.8155 3 2 ack 40 ------- 1 4.2 2.0 4 43
- 1.8155 3 2 ack 40 ------- 1 4.2 2.0 4 43
r 1.81564 3 2 ack 40 ------- 1 4.2 2.0 4 43
+ 1.81564 2 3 tcp 1040 ------- 1 2.0 4.2 9 55
- 1.81564 2 3 tcp 1040 ------- 1 2.0 4.2 9 55
+ 1.81564 2 3 tcp 1040 ------- 1 2.0 4.2 10 56
- 1.81668 2 3 tcp 1040 ------- 1 2.0 4.2 10 56
- 1.81678 3 4 tcp 1040 ------- 1 2.0 4.2 8 53
r 1.81678 2 3 tcp 1040 ------- 1 2.0 4.2 9 55
+ 1.81678 3 4 tcp 1040 ------- 1 2.0 4.2 9 55
r 1.81782 2 3 tcp 1040 ------- 1 2.0 4.2 10 56
+ 1.81782 3 4 tcp 1040 ------- 1 2.0 4.2 10 56
r 1.8191 3 4 tcp 1040 ------- 2 0.0 4.0 10 37
+ 1.8191 4 3 ack 40 ------- 2 4.0 0.0 10 57
- 1.8191 4 3 ack 40 ------- 2 4.0 0.0 10 57
r 1.8259 4 3 ack 40 ------- 1 4.2 2.0 5 44
+ 1.8259 3 2 ack 40 ------- 1 4.2 2.0 5 44
- 1.8259 3 2 ack 40 ------- 1 4.2 2.0 5 44
r 1.82604 3 2 ack 40 ------- 1 4.2 2.0 5 44
- 1.82718 3 4 tcp 1040 ------- 1 2.0 4.2 9 55
r 1.8295 3 4 tcp 1040 ------- 2 0.0 4.0 11 38
+ 1.8295 4 3 ack 40 ------- 2 4.0 0.0 11 58
- 1.8295 4 3 ack 40 ------- 2 4.0 0.0 11 58
r 1.8363 4 3 ack 40 ------- 1 4.2 2.0 6 45
+ 1.8363 3 2 ack 40 ------- 1 4.2 2.0 6 45
- 1.8363 3 2 ack 40 ------- 1 4.2 2.0 6 45
r 1.83644 3 2 ack 40 ------- 1 4.2 2.0 6 45
- 1.83758 3 4 tcp 1040 ------- 1 2.0 4.2 10 56
r 1.8399 3 4 tcp 1040 ------- 2 0.0 4.0 12 39
+ 1.8399 4 3 ack 40 ------- 2 4.0 0.0 12 59
- 1.8399 4 3 ack 40 ------- 2 4.0 0.0 12 59
r 1.8467 4 3 ack 40 ------- 3 4.1 1.0 3 46
+ 1.8467 3 1 ack 40 ------- 3 4.1 1.0 3 46
- 1.8467 3 1 ack 40 ------- 3 4.1 1.0 3 46
r 1.84684 3 1 ack 40 ------- 3 4.1 1.0 3 46
+ 1.84684 1 3 tcp 1040 ------- 3 1.0 4.1 7 60
- 1.84684 1 3 tcp 1040 ------- 3 1.0 4.1 7 60
+ 1.84684 1 3 tcp 1040 ------- 3 1.0 4.1 8 61
- 1.84788 1 3 tcp 1040 ------- 3 1.0 4.1 8 61
r 1.84798 1 3 tcp 1040 ------- 3 1.0 4.1 7 60
+ 1.84798 3 4 tcp 1040 ------- 3 1.0 4.1 7 60
- 1.84798 3 4 tcp 1040 ------- 3 1.0 4.1 7 60
r 1.84902 1 3 tcp 1040 ------- 3 1.0 4.1 8 61
+ 1.84902 3 4 tcp 1040 ------- 3 1.0 4.1 8 61
r 1.8503 3 4 tcp 1040 ------- 2 0.0 4.0 13 40
+ 1.8503 4 3 ack 40 ------- 2 4.0 0.0 13 62
- 1.8503 4 3 ack 40 ------- 2 4.0 0.0 13 62
r 1.8571 4 3 ack 40 ------- 3 4.1 1.0 4 47
+ 1.8571 3 1 ack 40 ------- 3 4.1 1.0 4 47
- 1.8571 3 1 ack 40 ------- 3 4.1 1.0 4 47
r 1.85724 3 1 ack 40 ------- 3 4.1 1.0 4 47
+ 1.85724 1 3 tcp 1040 ------- 3 1.0 4.1 9 63
- 1.85724 1 3 tcp 1040 ------- 3 1.0 4.1 9 63
+ 1.85724 1 3 tcp 1040 ------- 3 1.0 4.1 10 64
- 1.85828 1 3 tcp 1040 ------- 3 1.0 4.1 10 64
- 1.85838 3 4 tcp 1040 ------- 3 1.0 4.1 8 61
r 1.85838 1 3 tcp 1040 ------- 3 1.0 4.1 9 63
+ 1.85838 3 4 tcp 1040 ------- 3 1.0 4.1 9 63
r 1.85942 1 3 tcp 1040 ------- 3 1.0 4.1 10 64
+ 1.85942 3 4 tcp 1040 ------- 3 1.0 4.1 10 64
r 1.8675 4 3 ack 40 ------- 3 4.1 1.0 5 48
+ 1.8675 3 1 ack 40 ------- 3 4.1 1.0 5 48
- 1.8675 3 1 ack 40 ------- 3 4.1 1.0 5 48
r 1.86764 3 1 ack 40 ------- 3 4.1 1.0 5 48
+ 1.86764 1 3 tcp 1040 ------- 3 1.0 4.1 11 65
- 1.86764 1 3 tcp 1040 ------- 3 1.0 4.1 11 65
+ 1.86764 1 3 tcp 1040 ------- 3 1.0 4.1 12 66
- 1.86868 1 3 tcp 1040 ------- 3 1.0 4.1 12 66
- 1.86878 3 4 tcp 1040 ------- 3 1.0 4.1 9 63
r 1.86878 1 3 tcp 1040 ------- 3 1.0 4.1 11 65
+ 1.86878 3 4 tcp 1040 ------- 3 1.0 4.1 11 65
r 1.86982 1 3 tcp 1040 ------- 3 1.0 4.1 12 66
+ 1.86982 3 4 tcp 1040 ------- 3 1.0 4.1 12 66
r 1.8779 4 3 ack 40 ------- 3 4.1 1.0 6 49
+ 1.8779 3 1 ack 40 ------- 3 4.1 1.0 6 49
- 1.8779 3 1 ack 40 ------- 3 4.1 1.0 6 49
r 1.87804 3 1 ack 40 ------- 3 4.1 1.0 6 49
- 1.87918 3 4 tcp 1040 ------- 3 1.0 4.1 10 64
r 1.8883 4 3 ack 40 ------- 2 4.0 0.0 7 50
+ 1.8883 3 0 ack 40 ------- 2 4.0 0.0 7 50
- 1.8883 3 0 ack 40 ------- 2 4.0 0.0 7 50
r 1.88844 3 0 ack 40 ------- 2 4.0 0.0 7 50
+ 1.88844 0 3 tcp 1040 ------- 2 0.0 4.0 15 67
- 1.88844 0 3 tcp 1040 ------- 2 0.0 4.0 15 67
+ 1.88844 0 3 tcp 1040 ------- 2 0.0 4.0 16 68
- 1.88948 0 3 tcp 1040 ------- 2 0.0 4.0 16 68
- 1.88958 3 4 tcp 1040 ------- 3 1.0 4.1 11 65
r 1.88958 0 3 tcp 1040 ------- 2 0.0 4.0 15 67
+ 1.88958 3 4 tcp 1040 ------- 2 0.0 4.0 15 67
r 1.89062 0 3 tcp 1040 ------- 2 0.0 4.0 16 68
+ 1.89062 3 4 tcp 1040 ------- 2 0.0 4.0 16 68
r 1.8987 4 3 ack 40 ------- 2 4.0 0.0 8 51
+ 1.8987 3 0 ack 40 ------- 2 4.0 0.0 8 51
- 1.8987 3 0 ack 40 ------- 2 4.0 0.0 8 51
r 1.89884 3 0 ack 40 ------- 2 4.0 0.0 8 51
+ 1.89884 0 3 tcp 1040 ------- 2 0.0 4.0 17 69
- 1.89884 0 3 tcp 1040 ------- 2 0.0 4.0 17 69
+ 1.89884 0 3 tcp 1040 ------- 2 0.0 4.0 18 70
- 1.89988 0 3 tcp 1040 ------- 2 0.0 4.0 18 70
- 1.89998 3 4 tcp 1040 ------- 3 1.0 4.1 12 66
r 1.89998 0 3 tcp 1040 ------- 2 0.0 4.0 17 69
+ 1.89998 3 4 tcp 1040 ------- 2 0.0 4.0 17 69
r 1.90102 0 3 tcp 1040 ------- 2 0.0 4.0 18 70
+ 1.90102 3 4 tcp 1040 ------- 2 0.0 4.0 18 70
r 1.9091 4 3 ack 40 ------- 2 4.0 0.0 9 54
+ 1.9091 3 0 ack 40 ------- 2 4.0 0.0 9 54
- 1.9091 3 0 ack 40 ------- 2 4.0 0.0 9 54
r 1.90924 3 0 ack 40 ------- 2 4.0 0.0 9 54
+ 1.90924 0 3 tcp 1040 ------- 2 0.0 4.0 19 71
- 1.90924 0 3 tcp 1040 ------- 2 0.0 4.0 19 71
+ 1.90924 0 3 tcp 1040 ------- 2 0.0 4.0 20 72
- 1.91028 0 3 tcp 1040 ------- 2 0.0 4.0 20 72
- 1.91038 3 4 tcp 1040 ------- 2 0.0 4.0 15 67
r 1.91038 0 3 tcp 1040 ------- 2 0.0 4.0 19 71
+ 1.91038 3 4 tcp 1040 ------- 2 0.0 4.0 19 71
r 1.91142 0 3 tcp 1040 ------- 2 0.0 4.0 20 72
+ 1.91142 3 4 tcp 1040 ------- 2 0.0 4.0 20 72
r 1.91678 3 4 tcp 1040 ------- 1 2.0 4.2 7 52
+ 1.91678 4 3 ack 40 ------- 1 4.2 2.0 7 73
- 1.91678 4 3 ack 40 ------- 1 4.2 2.0 7 73
r 1.9195 4 3 ack 40 ------- 2 4.0 0.0 10 57
+ 1.9195 3 0 ack 40 ------- 2 4.0 0.0 10 57
- 1.9195 3 0 ack 40 ------- 2 4.0 0.0 10 57
r 1.91964 3 0 ack 40 ------- 2 4.0 0.0 10 57
+ 1.91964 0 3 tcp 1040 ------- 2 0.0 4.0 21 74
- 1.91964 0 3 tcp 1040 ------- 2 0.0 4.0 21 74
+ 1.91964 0 3 tcp 1040 ------- 2 0.0 4.0 22 75
- 1.92068 0 3 tcp 1040 ------- 2 0.0 4.0 22 75
- 1.92078 3 4 tcp 1040 ------- 2 0.0 4.0 16 68
r 1.92078 0 3 tcp 1040 ------- 2 0.0 4.0 21 74
+ 1.92078 3 4 tcp 1040 ------- 2 0.0 4.0 21 74
r 1.92182 0 3 tcp 1040 ------- 2 0.0 4.0 22 75
+ 1.92182 3 4 tcp 1040 ------- 2 0.0 4.0 22 75
r 1.92718 3 4 tcp 1040 ------- 1 2.0 4.2 8 53
+ 1.92718 4 3 ack 40 ------- 1 4.2 2.0 8 76
- 1.92718 4 3 ack 40 ------- 1 4.2 2.0 8 76
r 1.9299 4 3 ack 40 ------- 2 4.0 0.0 11 58
+ 1.9299 3 0 ack 40 ------- 2 4.0 0.0 11 58
- 1.9299 3 0 ack 40 ------- 2 4.0 0.0 11 58
r 1.93004 3 0 ack 40 ------- 2 4.0 0.0 11 58
+ 1.93004 0 3 tcp 1040 ------- 2 0.0 4.0 23 77
- 1.93004 0 3 tcp 1040 ------- 2 0.0 4.0 23 77
+ 1.93004 0 3 tcp 1040 ------- 2 0.0 4.0 24 78
- 1.93108 0 3 tcp 1040 ------- 2 0.0 4.0 24 78
- 1.93118 3 4 tcp 1040 ------- 2 0.0 4.0 17 69
r 1.93118 0 3 tcp 1040 ------- 2 0.0 4.0 23 77
+ 1.93118 3 4 tcp 1040 ------- 2 0.0 4.0 23 77
r 1.93222 0 3 tcp 1040 ------- 2 0.0 4.0 24 78
+ 1.93222 3 4 tcp 1040 ------- 2 0.0 4.0 24 78
r 1.93758 3 4 tcp 1040 ------- 1 2.0 4.2 9 55
+ 1.93758 4 3 ack 40 ------- 1 4.2 2.0 9 79
- 1.93758 4 3 ack 40 ------- 1 4.2 2.0 9 79
r 1.9403 4 3 ack 40 ------- 2 4.0 0.0 12 59
+ 1.9403 3 0 ack 40 ------- 2 4.0 0.0 12 59
- 1.9403 3 0 ack 40 ------- 2 4.0 0.0 12 59
r 1.94044 3 0 ack 40 ------- 2 4.0 0.0 12 59
+ 1.94044 0 3 tcp 1040 ------- 2 0.0 4.0 25 80
- 1.94044 0 3 tcp 1040 ------- 2 0.0 4.0 25 80
+ 1.94044 0 3 tcp 1040 ------- 2 0.0 4.0 26 81
- 1.94148 0 3 tcp 1040 ------- 2 0.0 4.0 26 81
- 1.94158 3 4 tcp 1040 ------- 2 0.0 4.0 18 70
r 1.94158 0 3 tcp 1040 ------- 2 0.0 4.0 25 80
+ 1.94158 3 4 tcp 1040 ------- 2 0.0 4.0 25 80
r 1.94262 0 3 tcp 1040 ------- 2 0.0 4.0 26 81
+ 1.94262 3 4 tcp 1040 ------- 2 0.0 4.0 26 81
d 1.94262 3 4 tcp 1040 ------- 2 0.0 4.0 26 81
r 1.94798 3 4 tcp 1040 ------- 1 2.0 4.2 10 56
+ 1.94798 4 3 ack 40 ------- 1 4.2 2.0 10 82
- 1.94798 4 3 ack 40 ------- 1 4.2 2.0 10 82
r 1.9507 4 3 ack 40 ------- 2 4.0 0.0 13 62
+ 1.9507 3 0 ack 40 ------- 2 4.0 0.0 13 62
- 1.9507 3 0 ack 40 ------- 2 4.0 0.0 13 62
r 1.95084 3 0 ack 40 ------- 2 4.0 0.0 13 62
+ 1.95084 0 3 tcp 1040 ------- 2 0.0 4.0 27 83
- 1.95084 0 3 tcp 1040 ------- 2 0.0 4.0 27 83
+ 1.95084 0 3 tcp 1040 ------- 2 0.0 4.0 28 84
- 1.95188 0 3 tcp 1040 ------- 2 0.0 4.0 28 84
- 1.95198 3 4 tcp 1040 ------- 2 0.0 4.0 19 71
r 1.95198 0 3 tcp 1040 ------- 2 0.0 4.0 27 83
+ 1.95198 3 4 tcp 1040 ------- 2 0.0 4.0 27 83
r 1.95302 0 3 tcp 1040 ------- 2 0.0 4.0 28 84
+ 1.95302 3 4 tcp 1040 ------- 2 0.0 4.0 28 84
d 1.95302 3 4 tcp 1040 ------- 2 0.0 4.0 28 84
r 1.95838 3 4 tcp 1040 ------- 3 1.0 4.1 7 60
+ 1.95838 4 3 ack 40 ------- 3 4.1 1.0 7 85
- 1.95838 4 3 ack 40 ------- 3 4.1 1.0 7 85
- 1.96238 3 4 tcp 1040 ------- 2 0.0 4.0 20 72
r 1.96878 3 4 tcp 1040 ------- 3 1.0 4.1 8 61
+ 1.96878 4 3 ack 40 ------- 3 4.1 1.0 8 86
- 1.96878 4 3 ack 40 ------- 3 4.1 1.0 8 86
- 1.97278 3 4 tcp 1040 ------- 2 0.0 4.0 21 74
r 1.97918 3 4 tcp 1040 ------- 3 1.0 4.1 9 63
+ 1.97918 4 3 ack 40 ------- 3 4.1 1.0 9 87
- 1.97918 4 3 ack 40 ------- 3 4.1 1.0 9 87
- 1.98318 3 4 tcp 1040 ------- 2 0.0 4.0 22 75
r 1.98958 3 4 tcp 1040 ------- 3 1.0 4.1 10 64
+ 1.98958 4 3 ack 40 ------- 3 4.1 1.0 10 88
- 1.98958 4 3 ack 40 ------- 3 4.1 1.0 10 88
- 1.99358 3 4 tcp 1040 ------- 2 0.0 4.0 23 77
r 1.99998 3 4 tcp 1040 ------- 3 1.0 4.1 11 65
+ 1.99998 4 3 ack 40 ------- 3 4.1 1.0 11 89
- 1.99998 4 3 ack 40 ------- 3 4.1 1.0 11 89
- 2.00398 3 4 tcp 1040 ------- 2 0.0 4.0 24 78
r 2.01038 3 4 tcp 1040 ------- 3 1.0 4.1 12 66
+ 2.01038 4 3 ack 40 ------- 3 4.1 1.0 12 90
- 2.01038 4 3 ack 40 ------- 3 4.1 1.0 12 90
- 2.01438 3 4 tcp 1040 ------- 2 0.0 4.0 25 80
r 2.01718 4 3 ack 40 ------- 1 4.2 2.0 7 73
+ 2.01718 3 2 ack 40 ------- 1 4.2 2.0 7 73
- 2.01718 3 2 ack 40 ------- 1 4.2 2.0 7 73
r 2.01732 3 2 ack 40 ------- 1 4.2 2.0 7 73
r 2.02078 3 4 tcp 1040 ------- 2 0.0 4.0 15 67
+ 2.02078 4 3 ack 48 ------- 2 4.0 0.0 13 91
- 2.02078 4 3 ack 48 ------- 2 4.0 0.0 13 91
- 2.02478 3 4 tcp 1040 ------- 2 0.0 4.0 27 83
r 2.02758 4 3 ack 40 ------- 1 4.2 2.0 8 76
+ 2.02758 3 2 ack 40 ------- 1 4.2 2.0 8 76
- 2.02758 3 2 ack 40 ------- 1 4.2 2.0 8 76
r 2.02772 3 2 ack 40 ------- 1 4.2 2.0 8 76
r 2.03118 3 4 tcp 1040 ------- 2 0.0 4.0 16 68
+ 2.03118 4 3 ack 48 ------- 2 4.0 0.0 13 92
- 2.03118 4 3 ack 48 ------- 2 4.0 0.0 13 92
r 2.03798 4 3 ack 40 ------- 1 4.2 2.0 9 79
+ 2.03798 3 2 ack 40 ------- 1 4.2 2.0 9 79
- 2.03798 3 2 ack 40 ------- 1 4.2 2.0 9 79
r 2.03812 3 2 ack 40 ------- 1 4.2 2.0 9 79
r 2.04158 3 4 tcp 1040 ------- 2 0.0 4.0 17 69
+ 2.04158 4 3 ack 48 ------- 2 4.0 0.0 13 93
- 2.04158 4 3 ack 48 ------- 2 4.0 0.0 13 93
r 2.04838 4 3 ack 40 ------- 1 4.2 2.0 10 82
+ 2.04838 3 2 ack 40 ------- 1 4.2 2.0 10 82
- 2.04838 3 2 ack 40 ------- 1 4.2 2.0 10 82
r 2.04852 3 2 ack 40 ------- 1 4.2 2.0 10 82
r 2.05198 3 4 tcp 1040 ------- 2 0.0 4.0 18 70
+ 2.05198 4 3 ack 48 ------- 2 4.0 0.0 13 94
- 2.05198 4 3 ack 48 ------- 2 4.0 0.0 13 94
r 2.05878 4 3 ack 40 ------- 3 4.1 1.0 7 85
+ 2.05878 3 1 ack 40 ------- 3 4.1 1.0 7 85
- 2.05878 3 1 ack 40 ------- 3 4.1 1.0 7 85
r 2.05892 3 1 ack 40 ------- 3 4.1 1.0 7 85
r 2.06238 3 4 tcp 1040 ------- 2 0.0 4.0 19 71
+ 2.06238 4 3 ack 48 ------- 2 4.0 0.0 13 95
- 2.06238 4 3 ack 48 ------- 2 4.0 0.0 13 95
r 2.06918 4 3 ack 40 ------- 3 4.1 1.0 8 86
+ 2.06918 3 1 ack 40 ------- 3 4.1 1.0 8 86
- 2.06918 3 1 ack 40 ------- 3 4.1 1.0 8 86
r 2.06932 3 1 ack 40 ------- 3 4.1 1.0 8 86
r 2.07278 3 4 tcp 1040 ------- 2 0.0 4.0 20 72
+ 2.07278 4 3 ack 48 ------- 2 4.0 0.0 13 96
- 2.07278 4 3 ack 48 ------- 2 4.0 0.0 13 96
r 2.07958 4 3 ack 40 ------- 3 4.1 1.0 9 87
+ 2.07958 3 1 ack 40 ------- 3 4.1 1.0 9 87
- 2.07958 3 1 ack 40 ------- 3 4.1 1.0 9 87
r 2.07972 3 1 ack 40 ------- 3 4.1 1.0 9 87
r 2.08318 3 4 tcp 1040 ------- 2 0.0 4.0 21 74
+ 2.08318 4 3 ack 48 ------- 2 4.0 0.0 13 97
- 2.08318 4 3 ack 48 ------- 2 4.0 0.0 13 97
r 2.08998 4 3 ack 40 ------- 3 4.1 1.0 10 88
+ 2.08998 3 1 ack 40 ------- 3 4.1 1.0 10 88
- 2.08998 3 1 ack 40 ------- 3 4.1 1.0 10 88
r 2.09012 3 1 ack 40 ------- 3 4.1 1.0 10 88
r 2.09358 3 4 tcp 1040 ------- 2 0.0 4.0 22 75
+ 2.09358 4 3 ack 48 ------- 2 4.0 0.0 13 98
- 2.09358 4 3 ack 48 ------- 2 4.0 0.0 13 98
r 2.10038 4 3 ack 40 ------- 3 4.1 1.0 11 89
+ 2.10038 3 1 ack 40 ------- 3 4.1 1.0 11 89
- 2.10038 3 1 ack 40 ------- 3 4.1 1.0 11 89
r 2.10052 3 1 ack 40 ------- 3 4.1 1.0 11 89
r 2.10398 3 4 tcp 1040 ------- 2 0.0 4.0 23 77
+ 2.10398 4 3 ack 48 ------- 2 4.0 0.0 13 99
- 2.10398 4 3 ack 48 ------- 2 4.0 0.0 13 99
r 2.11078 4 3 ack 40 ------- 3 4.1 1.0 12 90
+ 2.11078 3 1 ack 40 ------- 3 4.1 1.0 12 90
- 2.11078 3 1 ack 40 ------- 3 4.1 1.0 12 90
r 2.11092 3 1 ack 40 ------- 3 4.1 1.0 12 90
r 2.11438 3 4 tcp 1040 ------- 2 0.0 4.0 24 78
+ 2.11438 4 3 ack 48 ------- 2 4.0 0.0 13 100
- 2.11438 4 3 ack 48 ------- 2 4.0 0.0 13 100
r 2.12126 4 3 ack 48 ------- 2 4.0 0.0 13 91
+ 2.12126 3 0 ack 48 ------- 2 4.0 0.0 13 91
- 2.12126 3 0 ack 48 ------- 2 4.0 0.0 13 91
r 2.121408 3 0 ack 48 ------- 2 4.0 0.0 13 91
+ 2.121408 0 3 tcp 1040 ------- 2 0.0 4.0 29 101
- 2.121408 0 3 tcp 1040 ------- 2 0.0 4.0 29 101
r 2.122548 0 3 tcp 1040 ------- 2 0.0 4.0 29 101
+ 2.122548 3 4 tcp 1040 ------- 2 0.0 4.0 29 101
- 2.122548 3 4 tcp 1040 ------- 2 0.0 4.0 29 101
r 2.12478 3 4 tcp 1040 ------- 2 0.0 4.0 25 80
+ 2.12478 4 3 ack 48 ------- 2 4.0 0.0 13 102
- 2.12478 4 3 ack 48 ------- 2 4.0 0.0 13 102
r 2.13166 4 3 ack 48 ------- 2 4.0 0.0 13 92
+ 2.13166 3 0 ack 48 ------- 2 4.0 0.0 13 92
- 2.13166 3 0 ack 48 ------- 2 4.0 0.0 13 92
r 2.131808 3 0 ack 48 ------- 2 4.0 0.0 13 92
+ 2.131808 0 3 tcp 1040 ------- 2 0.0 4.0 30 103
- 2.131808 0 3 tcp 1040 ------- 2 0.0 4.0 30 103
r 2.132948 0 3 tcp 1040 ------- 2 0.0 4.0 30 103
+ 2.132948 3 4 tcp 1040 ------- 2 0.0 4.0 30 103
- 2.132948 3 4 tcp 1040 ------- 2 0.0 4.0 30 103
r 2.13518 3 4 tcp 1040 ------- 2 0.0 4.0 27 83
+ 2.13518 4 3 ack 56 ------- 2 4.0 0.0 13 104
- 2.13518 4 3 ack 56 ------- 2 4.0 0.0 13 104
r 2.14206 4 3 ack 48 ------- 2 4.0 0.0 13 93
+ 2.14206 3 0 ack 48 ------- 2 4.0 0.0 13 93
- 2.14206 3 0 ack 48 ------- 2 4.0 0.0 13 93
r 2.142208 3 0 ack 48 ------- 2 4.0 0.0 13 93
+ 2.142208 0 3 tcp 1040 ---A--- 2 0.0 4.0 14 105
- 2.142208 0 3 tcp 1040 ---A--- 2 0.0 4.0 14 105
r 2.143348 0 3 tcp 1040 ---A--- 2 0.0 4.0 14 105
+ 2.143348 3 4 tcp 1040 ---A--- 2 0.0 4.0 14 105
- 2.143348 3 4 tcp 1040 ---A--- 2 0.0 4.0 14 105
r 2.15246 4 3 ack 48 ------- 2 4.0 0.0 13 94
+ 2.15246 3 0 ack 48 ------- 2 4.0 0.0 13 94
- 2.15246 3 0 ack 48 ------- 2 4.0 0.0 13 94
r 2.152608 3 0 ack 48 ------- 2 4.0 0.0 13 94
r 2.16286 4 3 ack 48 ------- 2 4.0 0.0 13 95
+ 2.16286 3 0 ack 48 ------- 2 4.0 0.0 13 95
- 2.16286 3 0 ack 48 ------- 2 4.0 0.0 13 95
r 2.163008 3 0 ack 48 ------- 2 4.0 0.0 13 95
r 2.17326 4 3 ack 48 ------- 2 4.0 0.0 13 96
+ 2.17326 3 0 ack 48 ------- 2 4.0 0.0 13 96
- 2.17326 3 0 ack 48 ------- 2 4.0 0.0 13 96
r 2.173408 3 0 ack 48 ------- 2 4.0 0.0 13 96
r 2.18366 4 3 ack 48 ------- 2 4.0 0.0 13 97
+ 2.18366 3 0 ack 48 ------- 2 4.0 0.0 13 97
- 2.18366 3 0 ack 48 ------- 2 4.0 0.0 13 97
r 2.183808 3 0 ack 48 ------- 2 4.0 0.0 13 97
r 2.19406 4 3 ack 48 ------- 2 4.0 0.0 13 98
+ 2.19406 3 0 ack 48 ------- 2 4.0 0.0 13 98
- 2.19406 3 0 ack 48 ------- 2 4.0 0.0 13 98
r 2.194208 3 0 ack 48 ------- 2 4.0 0.0 13 98
r 2.20446 4 3 ack 48 ------- 2 4.0 0.0 13 99
+ 2.20446 3 0 ack 48 ------- 2 4.0 0.0 13 99
- 2.20446 3 0 ack 48 ------- 2 4.0 0.0 13 99
r 2.204608 3 0 ack 48 ------- 2 4.0 0.0 13 99
r 2.21486 4 3 ack 48 ------- 2 4.0 0.0 13 100
+ 2.21486 3 0 ack 48 ------- 2 4.0 0.0 13 100
- 2.21486 3 0 ack 48 ------- 2 4.0 0.0 13 100
r 2.215008 3 0 ack 48 ------- 2 4.0 0.0 13 100
r 2.22526 4 3 ack 48 ------- 2 4.0 0.0 13 102
+ 2.22526 3 0 ack 48 ------- 2 4.0 0.0 13 102
- 2.22526 3 0 ack 48 ------- 2 4.0 0.0 13 102
r 2.225408 3 0 ack 48 ------- 2 4.0 0.0 13 102
+ 2.225408 0 3 tcp 1040 ------- 2 0.0 4.0 31 106
- 2.225408 0 3 tcp 1040 ------- 2 0.0 4.0 31 106
r 2.226548 0 3 tcp 1040 ------- 2 0.0 4.0 31 106
+ 2.226548 3 4 tcp 1040 ------- 2 0.0 4.0 31 106
- 2.226548 3 4 tcp 1040 ------- 2 0.0 4.0 31 106
r 2.232948 3 4 tcp 1040 ------- 2 0.0 4.0 29 101
+ 2.232948 4 3 ack 64 ------- 2 4.0 0.0 13 107
- 2.232948 4 3 ack 64 ------- 2 4.0 0.0 13 107
r 2.23574 4 3 ack 56 ------- 2 4.0 0.0 13 104
+ 2.23574 3 0 ack 56 ------- 2 4.0 0.0 13 104
- 2.23574 3 0 ack 56 ------- 2 4.0 0.0 13 104
r 2.235896 3 0 ack 56 ------- 2 4.0 0.0 13 104
+ 2.235896 0 3 tcp 1040 ------- 2 0.0 4.0 26 108
- 2.235896 0 3 tcp 1040 ------- 2 0.0 4.0 26 108
r 2.237036 0 3 tcp 1040 ------- 2 0.0 4.0 26 108
+ 2.237036 3 4 tcp 1040 ------- 2 0.0 4.0 26 108
- 2.237036 3 4 tcp 1040 ------- 2 0.0 4.0 26 108
r 2.243348 3 4 tcp 1040 ------- 2 0.0 4.0 30 103
+ 2.243348 4 3 ack 64 ------- 2 4.0 0.0 13 109
- 2.243348 4 3 ack 64 ------- 2 4.0 0.0 13 109
r 2.253748 3 4 tcp 1040 ---A--- 2 0.0 4.0 14 105
+ 2.253748 4 3 ack 56 ------- 2 4.0 0.0 25 110
- 2.253748 4 3 ack 56 ------- 2 4.0 0.0 25 110
r 2.333588 4 3 ack 64 ------- 2 4.0 0.0 13 107
+ 2.333588 3 0 ack 64 ------- 2 4.0 0.0 13 107
- 2.333588 3 0 ack 64 ------- 2 4.0 0.0 13 107
r 2.333752 3 0 ack 64 ------- 2 4.0 0.0 13 107
+ 2.333752 0 3 tcp 1040 ------- 2 0.0 4.0 28 111
- 2.333752 0 3 tcp 1040 ------- 2 0.0 4.0 28 111
r 2.334892 0 3 tcp 1040 ------- 2 0.0 4.0 28 111
+ 2.334892 3 4 tcp 1040 ------- 2 0.0 4.0 28 111
- 2.334892 3 4 tcp 1040 ------- 2 0.0 4.0 28 111
r 2.336948 3 4 tcp 1040 ------- 2 0.0 4.0 31 106
+ 2.336948 4 3 ack 56 ------- 2 4.0 0.0 25 112
- 2.336948 4 3 ack 56 ------- 2 4.0 0.0 25 112
r 2.343988 4 3 ack 64 ------- 2 4.0 0.0 13 109