V -t * -v 1.0a5 -a 0
A -t * -n 1 -p 0 -o 0x7fffffff -c 30 -a 1
A -t * -h 1 -m 1073741823 -s 0
c -t * -i 0 -n green
c -t * -i 1 -n yellow
c -t * -i 2 -n blue
c -t * -i 3 -n red
n -t * -a 4 -s 4 -S UP -v circle -c black -i black
n -t * -a 0 -s 0 -S UP -v circle -c black -i black
n -t * -a 1 -s 1 -S UP -v circle -c black -i black
n -t * -a 2 -s 2 -S UP -v circle -c black -i black
n -t * -a 3 -s 3 -S UP -v circle -c black -i black
l -t * -s 0 -d 3 -S UP -r 8000000 -D 0.0001 -c black -o right-down
l -t * -s 2 -d 3 -S UP -r 8000000 -D 0.0001 -c black -o right-up
l -t * -s 3 -d 1 -S UP -r 8000000 -D 0.0001 -c black -o left
l -t * -s 3 -d 4 -S UP -r 800000 -D 0.10000000000000001 -c black -o right
q -t * -s 4 -d 3 -a 0.5
q -t * -s 3 -d 4 -a 0.5
+ -t 1 -s 0 -d 3 -p tcp -e 40 -c 2 -i 0 -a 2 -x {0.0 4.0 0 ------- null}
- -t 1 -s 0 -d 3 -p tcp -e 40 -c 2 -i 0 -a 2 -x {0.0 4.0 0 ------- null}
h -t 1 -s 0 -d 3 -p tcp -e 40 -c 2 -i 0 -a 2 -x {0.0 4.0 -1 ------- null}
r -t 1.00014 -s 0 -d 3 -p tcp -e 40 -c 2 -i 0 -a 2 -x {0.0 4.0 0 ------- null}
+ -t 1.00014 -s 3 -d 4 -p tcp -e 40 -c 2 -i 0 -a 2 -x {0.0 4.0 0 ------- null}
- -t 1.00014 -s 3 -d 4 -p tcp -e 40 -c 2 -i 0 -a 2 -x {0.0 4.0 0 ------- null}
h -t 1.00014 -s 3 -d 4 -p tcp -e 40 -c 2 -i 0 -a 2 -x {0.0 4.0 -1 ------- null}
r -t 1.10054 -s 3 -d 4 -p tcp -e 40 -c 2 -i 0 -a 2 -x {0.0 4.0 0 ------- null}
+ -t 1.10054 -s 4 -d 3 -p ack -e 40 -c 2 -i 1 -a 2 -x {4.0 0.0 0 ------- null}
- -t 1.10054 -s 4 -d 3 -p ack -e 40 -c 2 -i 1 -a 2 -x {4.0 0.0 0 ------- null}
h -t 1.10054 -s 4 -d 3 -p ack -e 40 -c 2 -i 1 -a 2 -x {4.0 0.0 -1 ------- null}
+ -t 1.18 -s 2 -d 3 -p tcp -e 40 -c 1 -i 2 -a 1 -x {2.0 4.2 0 ------- null}
- -t 1.18 -s 2 -d 3 -p tcp -e 40 -c 1 -i 2 -a 1 -x {2.0 4.2 0 ------- null}
h -t 1.18 -s 2 -d 3 -p tcp -e 40 -c 1 -i 2 -a 1 -x {2.0 4.2 -1 ------- null}
r -t 1.18014 -s 2 -d 3 -p tcp -e 40 -c 1 -i 2 -a 1 -x {2.0 4.2 0 ------- null}
+ -t 1.18014 -s 3 -d 4 -p tcp -e 40 -c 1 -i 2 -a 1 -x {2.0 4.2 0 ------- null}
- -t 1.18014 -s 3 -d 4 -p tcp -e 40 -c 1 -i 2 -a 1 -x {2.0 4.2 0 ------- null}
h -t 1.18014 -s 3 -d 4 -p tcp -e 40 -c 1 -i 2 -a 1 -x {2.0 4.2 -1 ------- null}
+ -t 1.2 -s 1 -d 3 -p tcp -e 40 -c 3 -i 3 -a 3 -x {1.0 4.1 0 ------- null}
- -t 1.2 -s 1 -d 3 -p tcp -e 40 -c 3 -i 3 -a 3 -x {1.0 4.1 0 ------- null}
h -t 1.2 -s 1 -d 3 -p tcp -e 40 -c 3 -i 3 -a 3 -x {1.0 4.1 -1 ------- null}
r -t 1.20014 -s 1 -d 3 -p tcp -e 40 -c 3 -i 3 -a 3 -x {1.0 4.1 0 ------- null}
+ -t 1.20014 -s 3 -d 4 -p tcp -e 40 -c 3 -i 3 -a 3 -x {1.0 4.1 0 ------- null}
- -t 1.20014 -s 3 -d 4 -p tcp -e 40 -c 3 -i 3 -a 3 -x {1.0 4.1 0 ------- null}
h -t 1.20014 -s 3 -d 4 -p tcp -e 40 -c 3 -i 3 -a 3 -x {1.0 4.1 -1 ------- null}
r -t 1.20094 -s 4 -d 3 -p ack -e 40 -c 2 -i 1 -a 2 -x {4.0 0.0 0 ------- null}
+ -t 1.20094 -s 3 -d 0 -p ack -e 40 -c 2 -i 1 -a 2 -x {4.0 0.0 0 ------- null}
- -t 1.20094 -s 3 -d 0 -p ack -e 40 -c 2 -i 1 -a 2 -x {4.0 0.0 0 ------- null}
h -t 1.20094 -s 3 -d 0 -p ack -e 40 -c 2 -i 1 -a 2 -x {4.0 0.0 -1 ------- null}
r -t 1.20108 -s 3 -d 0 -p ack -e 40 -c 2 -i 1 -a 2 -x {4.0 0.0 0 ------- null}
+ -t 1.20108 -s 0 -d 3 -p tcp -e 1040 -c 2 -i 4 -a 2 -x {0.0 4.0 1 ------- null}
- -t 1.20108 -s 0 -d 3 -p tcp -e 1040 -c 2 -i 4 -a 2 -x {0.0 4.0 1 ------- null}
h -t 1.20108 -s 0 -d 3 -p tcp -e 1040 -c 2 -i 4 -a 2 -x {0.0 4.0 -1 ------- null}
+ -t 1.20108 -s 0 -d 3 -p tcp -e 1040 -c 2 -i 5 -a 2 -x {0.0 4.0 2 ------- null}
- -t 1.20212 -s 0 -d 3 -p tcp -e 1040 -c 2 -i 5 -a 2 -x {0.0 4.0 2 ------- null}
h -t 1.20212 -s 0 -d 3 -p tcp -e 1040 -c 2 -i 5 -a 2 -x {0.0 4.0 -1 ------- null}
r -t 1.20222 -s 0 -d 3 -p tcp -e 1040 -c 2 -i 4 -a 2 -x {0.0 4.0 1 ------- null}
+ -t 1.20222 -s 3 -d 4 -p tcp -e 1040 -c 2 -i 4 -a 2 -x {0.0 4.0 1 ------- null}
- -t 1.20222 -s 3 -d 4 -p tcp -e 1040 -c 2 -i 4 -a 2 -x {0.0 4.0 1 ------- null}
h -t 1.20222 -s 3 -d 4 -p tcp -e 1040 -c 2 -i 4 -a 2 -x {0.0 4.0 -1 ------- null}
r -t 1.20326 -s 0 -d 3 -p tcp -e 1040 -c 2 -i 5 -a 2 -x {0.0 4.0 2 ------- null}
+ -t 1.20326 -s 3 -d 4 -p tcp -e 1040 -c 2 -i 5 -a 2 -x {0.0 4.0 2 ------- null}
- -t 1.21262 -s 3 -d 4 -p tcp -e 1040 -c 2 -i 5 -a 2 -x {0.0 4.0 2 ------- null}
h -t 1.21262 -s 3 -d 4 -p tcp -e 1040 -c 2 -i 5 -a 2 -x {0.0 4.0 -1 ------- null}
r -t 1.28054 -s 3 -d 4 -p tcp -e 40 -c 1 -i 2 -a 1 -x {2.0 4.2 0 ------- null}
+ -t 1.28054 -s 4 -d 3 -p ack -e 40 -c 1 -i 6 -a 1 -x {4.2 2.0 0 ------- null}
- -t 1.28054 -s 4 -d 3 -p ack -e 40 -c 1 -i 6 -a 1 -x {4.2 2.0 0 ------- null}
h -t 1.28054 -s 4 -d 3 -p ack -e 40 -c 1 -i 6 -a 1 -x {4.2 2.0 -1 ------- null}
r -t 1.30054 -s 3 -d 4 -p tcp -e 40 -c 3 -i 3 -a 3 -x {1.0 4.1 0 ------- null}
+ -t 1.30054 -s 4 -d 3 -p ack -e 40 -c 3 -i 7 -a 3 -x {4.1 1.0 0 ------- null}
- -t 1.30054 -s 4 -d 3 -p ack -e 40 -c 3 -i 7 -a 3 -x {4.1 1.0 0 ------- null}
h -t 1.30054 -s 4 -d 3 -p ack -e 40 -c 3 -i 7 -a 3 -x {4.1 1.0 -1 ------- null}
r -t 1.31262 -s 3 -d 4 -p tcp -e 1040 -c 2 -i 4 -a 2 -x {0.0 4.0 1 ------- null}
+ -t 1.31262 -s 4 -d 3 -p ack -e 40 -c 2 -i 8 -a 2 -x {4.0 0.0 1 ------- null}
- -t 1.31262 -s 4 -d 3 -p ack -e 40 -c 2 -i 8 -a 2 -x {4.0 0.0 1 ------- null}
h -t 1.31262 -s 4 -d 3 -p ack -e 40 -c 2 -i 8 -a 2 -x {4.0 0.0 -1 ------- null}
r -t 1.32302 -s 3 -d 4 -p tcp -e 1040 -c 2 -i 5 -a 2 -x {0.0 4.0 2 ------- null}
+ -t 1.32302 -s 4 -d 3 -p ack -e 40 -c 2 -i 9 -a 2 -x {4.0 0.0 2 ------- null}
- -t 1.32302 -s 4 -d 3 -p ack -e 40 -c 2 -i 9 -a 2 -x {4.0 0.0 2 ------- null}
h -t 1.32302 -s 4 -d 3 -p ack -e 40 -c 2 -i 9 -a 2 -x {4.0 0.0 -1 ------- null}
r -t 1.38094 -s 4 -d 3 -p ack -e 40 -c 1 -i 6 -a 1 -x {4.2 2.0 0 ------- null}
+ -t 1.38094 -s 3 -d 2 -p ack -e 40 -c 1 -i 6 -a 1 -x {4.2 2.0 0 ------- null}
- -t 1.38094 -s 3 -d 2 -p ack -e 40 -c 1 -i 6 -a 1 -x {4.2 2.0 0 ------- null}
h -t 1.38094 -s 3 -d 2 -p ack -e 40 -c 1 -i 6 -a 1 -x {4.2 2.0 -1 ------- null}
r -t 1.38108 -s 3 -d 2 -p ack -e 40 -c 1 -i 6 -a 1 -x {4.2 2.0 0 ------- null}
+ -t 1.38108 -s 2 -d 3 -p tcp -e 1040 -c 1 -i 10 -a 1 -x {2.0 4.2 1 ------- null}
- -t 1.38108 -s 2 -d 3 -p tcp -e 1040 -c 1 -i 10 -a 1 -x {2.0 4.2 1 ------- null}
h -t 1.38108 -s 2 -d 3 -p tcp -e 1040 -c 1 -i 10 -a 1 -x {2.0 4.2 -1 ------- null}
+ -t 1.38108 -s 2 -d 3 -p tcp -e 1040 -c 1 -i 11 -a 1 -x {2.0 4.2 2 ------- null}
- -t 1.38212 -s 2 -d 3 -p tcp -e 1040 -c 1 -i 11 -a 1 -x {2.0 4.2 2 ------- null}
h -t 1.38212 -s 2 -d 3 -p tcp -e 1040 -c 1 -i 11 -a 1 -x {2.0 4.2 -1 ------- null}
r -t 1.38222 -s 2 -d 3 -p tcp -e 1040 -c 1 -i 10 -a 1 -x {2.0 4.2 1 ------- null}
+ -t 1.38222 -s 3 -d 4 -p tcp -e 1040 -c 1 -i 10 -a 1 -x {2.0 4.2 1 ------- null}
- -t 1.38222 -s 3 -d 4 -p tcp -e 1040 -c 1 -i 10 -a 1 -x {2.0 4.2 1 ------- null}
h -t 1.38222 -s 3 -d 4 -p tcp -e 1040 -c 1 -i 10 -a 1 -x {2.0 4.2 -1 ------- null}
r -t 1.38326 -s 2 -d 3 -p tcp -e 1040 -c 1 -i 11 -a 1 -x {2.0 4.2 2 ------- null}
+ -t 1.38326 -s 3 -d 4 -p tcp -e 1040 -c 1 -i 11 -a 1 -x {2.0 4.2 2 ------- null}
- -t 1.39262 -s 3 -d 4 -p tcp -e 1040 -c 1 -i 11 -a 1 -x {2.0 4.2 2 ------- null}
h -t 1.39262 -s 3 -d 4 -p tcp -e 1040 -c 1 -i 11 -a 1 -x {2.0 4.2 -1 ------- null}
r -t 1.40094 -s 4 -d 3 -p ack -e 40 -c 3 -i 7 -a 3 -x {4.1 1.0 0 ------- null}
+ -t 1.40094 -s 3 -d 1 -p ack -e 40 -c 3 -i 7 -a 3 -x {4.1 1.0 0 ------- null}
- -t 1.40094 -s 3 -d 1 -p ack -e 40 -c 3 -i 7 -a 3 -x {4.1 1.0 0 ------- null}
h -t 1.40094 -s 3 -d 1 -p ack -e 40 -c 3 -i 7 -a 3 -x {4.1 1.0 -1 ------- null}
r -t 1.40108 -s 3 -d 1 -p ack -e 40 -c 3 -i 7 -a 3 -x {4.1 1.0 0 ------- null}
+ -t 1.40108 -s 1 -d 3 -p tcp -e 1040 -c 3 -i 12 -a 3 -x {1.0 4.1 1 ------- null}
- -t 1.40108 -s 1 -d 3 -p tcp -e 1040 -c 3 -i 12 -a 3 -x {1.0 4.1 1 ------- null}
h -t 1.40108 -s 1 -d 3 -p tcp -e 1040 -c 3 -i 12 -a 3 -x {1.0 4.1 -1 ------- null}
+ -t 1.40108 -s 1 -d 3 -p tcp -e 1040 -c 3 -i 13 -a 3 -x {1.0 4.1 2 ------- null}
- -t 1.40212 -s 1 -d 3 -p tcp -e 1040 -c 3 -i 13 -a 3 -x {1.0 4.1 2 ------- null}
h -t 1.40212 -s 1 -d 3 -p tcp -e 1040 -c 3 -i 13 -a 3 -x {1.0 4.1 -1 ------- null}
r -t 1.40222 -s 1 -d 3 -p tcp -e 1040 -c 3 -i 12 -a 3 -x {1.0 4.1 1 ------- null}
+ -t 1.40222 -s 3 -d 4 -p tcp -e 1040 -c 3 -i 12 -a 3 -x {1.0 4.1 1 ------- null}
- -t 1.40302 -s 3 -d 4 -p tcp -e 1040 -c 3 -i 12 -a 3 -x {1.0 4.1 1 ------- null}
h -t 1.40302 -s 3 -d 4 -p tcp -e 1040 -c 3 -i 12 -a 3 -x {1.0 4.1 -1 ------- null}
r -t 1.40326 -s 1 -d 3 -p tcp -e 1040 -c 3 -i 13 -a 3 -x {1.0 4.1 2 ------- null}
+ -t 1.40326 -s 3 -d 4 -p tcp -e 1040 -c 3 -i 13 -a 3 -x {1.0 4.1 2 ------- null}
r -t 1.41302 -s 4 -d 3 -p ack -e 40 -c 2 -i 8 -a 2 -x {4.0 0.0 1 ------- null}
+ -t 1.41302 -s 3 -d 0 -p ack -e 40 -c 2 -i 8 -a 2 -x {4.0 0.0 1 ------- null}
- -t 1.41302 -s 3 -d 0 -p ack -e 40 -c 2 -i 8 -a 2 -x {4.0 0.0 1 ------- null}
h -t 1.41302 -s 3 -d 0 -p ack -e 40 -c 2 -i 8 -a 2 -x {4.0 0.0 -1 ------- null}
r -t 1.41316 -s 3 -d 0 -p ack -e 40 -c 2 -i 8 -a 2 -x {4.0 0.0 1 ------- null}
+ -t 1.41316 -s 0 -d 3 -p tcp -e 1040 -c 2 -i 14 -a 2 -x {0.0 4.0 3 ------- null}
- -t 1.41316 -s 0 -d 3 -p tcp -e 1040 -c 2 -i 14 -a 2 -x {0.0 4.0 3 ------- null}
h -t 1.41316 -s 0 -d 3 -p tcp -e 1040 -c 2 -i 14 -a 2 -x {0.0 4.0 -1 ------- null}
+ -t 1.41316 -s 0 -d 3 -p tcp -e 1040 -c 2 -i 15 -a 2 -x {0.0 4.0 4 ------- null}
- -t 1.41342 -s 3 -d 4 -p tcp -e 1040 -c 3 -i 13 -a 3 -x {1.0 4.1 2 ------- null}
h -t 1.41342 -s 3 -d 4 -p tcp -e 1040 -c 3 -i 13 -a 3 -x {1.0 4.1 -1 ------- null}
- -t 1.4142 -s 0 -d 3 -p tcp -e 1040 -c 2 -i 15 -a 2 -x {0.0 4.0 4 ------- null}
h -t 1.4142 -s 0 -d 3 -p tcp -e 1040 -c 2 -i 15 -a 2 -x {0.0 4.0 -1 ------- null}
r -t 1.4143 -s 0 -d 3 -p tcp -e 1040 -c 2 -i 14 -a 2 -x {0.0 4.0 3 ------- null}
+ -t 1.4143 -s 3 -d 4 -p tcp -e 1040 -c 2 -i 14 -a 2 -x {0.0 4.0 3 ------- null}
r -t 1.41534 -s 0 -d 3 -p tcp -e 1040 -c 2 -i 15 -a 2 -x {0.0 4.0 4 ------- null}
+ -t 1.41534 -s 3 -d 4 -p tcp -e 1040 -c 2 -i 15 -a 2 -x {0.0 4.0 4 ------- null}
r -t 1.42342 -s 4 -d 3 -p ack -e 40 -c 2 -i 9 -a 2 -x {4.0 0.0 2 ------- null}
+ -t 1.42342 -s 3 -d 0 -p ack -e 40 -c 2 -i 9 -a 2 -x {4.0 0.0 2 ------- null}
- -t 1.42342 -s 3 -d 0 -p ack -e 40 -c 2 -i 9 -a 2 -x {4.0 0.0 2 ------- null}
h -t 1.42342 -s 3 -d 0 -p ack -e 40 -c 2 -i 9 -a 2 -x {4.0 0.0 -1 ------- null}
r -t 1.42356 -s 3 -d 0 -p ack -e 40 -c 2 -i 9 -a 2 -x {4.0 0.0 2 ------- null}
+ -t 1.42356 -s 0 -d 3 -p tcp -e 1040 -c 2 -i 16 -a 2 -x {0.0 4.0 5 ------- null}
- -t 1.42356 -s 0 -d 3 -p tcp -e 1040 -c 2 -i 16 -a 2 -x {0.0 4.0 5 ------- null}
h -t 1.42356 -s 0 -d 3 -p tcp -e 1040 -c 2 -i 16 -a 2 -x {0.0 4.0 -1 ------- null}
+ -t 1.42356 -s 0 -d 3 -p tcp -e 1040 -c 2 -i 17 -a 2 -x {0.0 4.0 6 ------- null}
- -t 1.42382 -s 3 -d 4 -p tcp -e 1040 -c 2 -i 14 -a 2 -x {0.0 4.0 3 ------- null}
h -t 1.42382 -s 3 -d 4 -p tcp -e 1040 -c 2 -i 14 -a 2 -x {0.0 4.0 -1 ------- null}
- -t 1.4246 -s 0 -d 3 -p tcp -e 1040 -c 2 -i 17 -a 2 -x {0.0 4.0 6 ------- null}
h -t 1.4246 -s 0 -d 3 -p tcp -e 1040 -c 2 -i 17 -a 2 -x {0.0 4.0 -1 ------- null}
r -t 1.4247 -s 0 -d 3 -p tcp -e 1040 -c 2 -i 16 -a 2 -x {0.0 4.0 5 ------- null}
+ -t 1.4247 -s 3 -d 4 -p tcp -e 1040 -c 2 -i 16 -a 2 -x {0.0 4.0 5 ------- null}
r -t 1.42574 -s 0 -d 3 -p tcp -e 1040 -c 2 -i 17 -a 2 -x {0.0 4.0 6 ------- null}
+ -t 1.42574 -s 3 -d 4 -p tcp -e 1040 -c 2 -i 17 -a 2 -x {0.0 4.0 6 ------- null}
- -t 1.43422 -s 3 -d 4 -p tcp -e 1040 -c 2 -i 15 -a 2 -x {0.0 4.0 4 ------- null}
h -t 1.43422 -s 3 -d 4 -p tcp -e 1040 -c 2 -i 15 -a 2 -x {0.0 4.0 -1 ------- null}
- -t 1.44462 -s 3 -d 4 -p tcp -e 1040 -c 2 -i 16 -a 2 -x {0.0 4.0 5 ------- null}
h -t 1.44462 -s 3 -d 4 -p tcp -e 1040 -c 2 -i 16 -a 2 -x {0.0 4.0 -1 ------- null}
- -t 1.45502 -s 3 -d 4 -p tcp -e 1040 -c 2 -i 17 -a 2 -x {0.0 4.0 6 ------- null}
h -t 1.45502 -s 3 -d 4 -p tcp -e 1040 -c 2 -i 17 -a 2 -x {0.0 4.0 -1 ------- null}
r -t 1.49262 -s 3 -d 4 -p tcp -e 1040 -c 1 -i 10 -a 1 -x {2.0 4.2 1 ------- null}
+ -t 1.49262 -s 4 -d 3 -p ack -e 40 -c 1 -i 18 -a 1 -x {4.2 2.0 1 ------- null}
- -t 1.49262 -s 4 -d 3 -p ack -e 40 -c 1 -i 18 -a 1 -x {4.2 2.0 1 ------- null}
h -t 1.49262 -s 4 -d 3 -p ack -e 40 -c 1 -i 18 -a 1 -x {4.2 2.0 -1 ------- null}
r -t 1.50302 -s 3 -d 4 -p tcp -e 1040 -c 1 -i 11 -a 1 -x {2.0 4.2 2 ------- null}
+ -t 1.50302 -s 4 -d 3 -p ack -e 40 -c 1 -i 19 -a 1 -x {4.2 2.0 2 ------- null}
- -t 1.50302 -s 4 -d 3 -p ack -e 40 -c 1 -i 19 -a 1 -x {4.2 2.0 2 ------- null}
h -t 1.50302 -s 4 -d 3 -p ack -e 40 -c 1 -i 19 -a 1 -x {4.2 2.0 -1 ------- null}
r -t 1.51342 -s 3 -d 4 -p tcp -e 1040 -c 3 -i 12 -a 3 -x {1.0 4.1 1 ------- null}
+ -t 1.51342 -s 4 -d 3 -p ack -e 40 -c 3 -i 20 -a 3 -x {4.1 1.0 1 ------- null}
- -t 1.51342 -s 4 -d 3 -p ack -e 40 -c 3 -i 20 -a 3 -x {4.1 1.0 1 ------- null}
h -t 1.51342 -s 4 -d 3 -p ack -e 40 -c 3 -i 20 -a 3 -x {4.1 1.0 -1 ------- null}
r -t 1.52382 -s 3 -d 4 -p tcp -e 1040 -c 3 -i 13 -a 3 -x {1.0 4.1 2 ------- null}
+ -t 1.52382 -s 4 -d 3 -p ack -e 40 -c 3 -i 21 -a 3 -x {4.1 1.0 2 ------- null}
- -t 1.52382 -s 4 -d 3 -p ack -e 40 -c 3 -i 21 -a 3 -x {4.1 1.0 2 ------- null}
h -t 1.52382 -s 4 -d 3 -p ack -e 40 -c 3 -i 21 -a 3 -x {4.1 1.0 -1 ------- null}
r -t 1.53422 -s 3 -d 4 -p tcp -e 1040 -c 2 -i 14 -a 2 -x {0.0 4.0 3 ------- null}
+ -t 1.53422 -s 4 -d 3 -p ack -e 40 -c 2 -i 22 -a 2 -x {4.0 0.0 3 ------- null}
- -t 1.53422 -s 4 -d 3 -p ack -e 40 -c 2 -i 22 -a 2 -x {4.0 0.0 3 ------- null}
h -t 1.53422 -s 4 -d 3 -p ack -e 40 -c 2 -i 22 -a 2 -x {4.0 0.0 -1 ------- null}
r -t 1.54462 -s 3 -d 4 -p tcp -e 1040 -c 2 -i 15 -a 2 -x {0.0 4.0 4 ------- null}
+ -t 1.54462 -s 4 -d 3 -p ack -e 40 -c 2 -i 23 -a 2 -x {4.0 0.0 4 ------- null}
- -t 1.54462 -s 4 -d 3 -p ack -e 40 -c 2 -i 23 -a 2 -x {4.0 0.0 4 ------- null}
h -t 1.54462 -s 4 -d 3 -p ack -e 40 -c 2 -i 23 -a 2 -x {4.0 0.0 -1 ------- null}
r -t 1.55502 -s 3 -d 4 -p tcp -e 1040 -c 2 -i 16 -a 2 -x {0.0 4.0 5 ------- null}
+ -t 1.55502 -s 4 -d 3 -p ack -e 40 -c 2 -i 24 -a 2 -x {4.0 0.0 5 ------- null}
- -t 1.55502 -s 4 -d 3 -p ack -e 40 -c 2 -i 24 -a 2 -x {4.0 0.0 5 ------- null}
h -t 1.55502 -s 4 -d 3 -p ack -e 40 -c 2 -i 24 -a 2 -x {4.0 0.0 -1 ------- null}
r -t 1.56542 -s 3 -d 4 -p tcp -e 1040 -c 2 -i 17 -a 2 -x {0.0 4.0 6 ------- null}
+ -t 1.56542 -s 4 -d 3 -p ack -e 40 -c 2 -i 25 -a 2 -x {4.0 0.0 6 ------- null}
- -t 1.56542 -s 4 -d 3 -p ack -e 40 -c 2 -i 25 -a 2 -x {4.0 0.0 6 ------- null}
h -t 1.56542 -s 4 -d 3 -p ack -e 40 -c 2 -i 25 -a 2 -x {4.0 0.0 -1 ------- null}
r -t 1.59302 -s 4 -d 3 -p ack -e 40 -c 1 -i 18 -a 1 -x {4.2 2.0 1 ------- null}
+ -t 1.59302 -s 3 -d 2 -p ack -e 40 -c 1 -i 18 -a 1 -x {4.2 2.0 1 ------- null}
- -t 1.59302 -s 3 -d 2 -p ack -e 40 -c 1 -i 18 -a 1 -x {4.2 2.0 1 ------- null}
h -t 1.59302 -s 3 -d 2 -p ack -e 40 -c 1 -i 18 -a 1 -x {4.2 2.0 -1 ------- null}
r -t 1.59316 -s 3 -d 2 -p ack -e 40 -c 1 -i 18 -a 1 -x {4.2 2.0 1 ------- null}
+ -t 1.59316 -s 2 -d 3 -p tcp -e 1040 -c 1 -i 26 -a 1 -x {2.0 4.2 3 ------- null}
- -t 1.59316 -s 2 -d 3 -p tcp -e 1040 -c 1 -i 26 -a 1 -x {2.0 4.2 3 ------- null}
h -t 1.59316 -s 2 -d 3 -p tcp -e 1040 -c 1 -i 26 -a 1 -x {2.0 4.2 -1 ------- null}
+ -t 1.59316 -s 2 -d 3 -p tcp -e 1040 -c 1 -i 27 -a 1 -x {2.0 4.2 4 ------- null}
- -t 1.5942 -s 2 -d 3 -p tcp -e 1040 -c 1 -i 27 -a 1 -x {2.0 4.2 4 ------- null}
h -t 1.5942 -s 2 -d 3 -p tcp -e 1040 -c 1 -i 27 -a 1 -x {2.0 4.2 -1 ------- null}
r -t 1.5943 -s 2 -d 3 -p tcp -e 1040 -c 1 -i 26 -a 1 -x {2.0 4.2 3 ------- null}
+ -t 1.5943 -s 3 -d 4 -p tcp -e 1040 -c 1 -i 26 -a 1 -x {2.0 4.2 3 ------- null}
- -t 1.5943 -s 3 -d 4 -p tcp -e 1040 -c 1 -i 26 -a 1 -x {2.0 4.2 3 ------- null}
h -t 1.5943 -s 3 -d 4 -p tcp -e 1040 -c 1 -i 26 -a 1 -x {2.0 4.2 -1 ------- null}
r -t 1.59534 -s 2 -d 3 -p tcp -e 1040 -c 1 -i 27 -a 1 -x {2.0 4.2 4 ------- null}
+ -t 1.59534 -s 3 -d 4 -p tcp -e 1040 -c 1 -i 27 -a 1 -x {2.0 4.2 4 ------- null}
r -t 1.60342 -s 4 -d 3 -p ack -e 40 -c 1 -i 19 -a 1 -x {4.2 2.0 2 ------- null}
+ -t 1.60342 -s 3 -d 2 -p ack -e 40 -c 1 -i 19 -a 1 -x {4.2 2.0 2 ------- null}
- -t 1.60342 -s 3 -d 2 -p ack -e 40 -c 1 -i 19 -a 1 -x {4.2 2.0 2 ------- null}
h -t 1.60342 -s 3 -d 2 -p ack -e 40 -c 1 -i 19 -a 1 -x {4.2 2.0 -1 ------- null}
r -t 1.60356 -s 3 -d 2 -p ack -e 40 -c 1 -i 19 -a 1 -x {4.2 2.0 2 ------- null}
+ -t 1.60356 -s 2 -d 3 -p tcp -e 1040 -c 1 -i 28 -a 1 -x {2.0 4.2 5 ------- null}
- -t 1.60356 -s 2 -d 3 -p tcp -e 1040 -c 1 -i 28 -a 1 -x {2.0 4.2 5 ------- null}
h -t 1.60356 -s 2 -d 3 -p tcp -e 1040 -c 1 -i 28 -a 1 -x {2.0 4.2 -1 ------- null}
+ -t 1.60356 -s 2 -d 3 -p tcp -e 1040 -c 1 -i 29 -a 1 -x {2.0 4.2 6 ------- null}
- -t 1.6046 -s 2 -d 3 -p tcp -e 1040 -c 1 -i 29 -a 1 -x {2.0 4.2 6 ------- null}
h -t 1.6046 -s 2 -d 3 -p tcp -e 1040 -c 1 -i 29 -a 1 -x {2.0 4.2 -1 ------- null}
- -t 1.6047 -s 3 -d 4 -p tcp -e 1040 -c 1 -i 27 -a 1 -x {2.0 4.2 4 ------- null}
h -t 1.6047 -s 3 -d 4 -p tcp -e 1040 -c 1 -i 27 -a 1 -x {2.0 4.2 -1 ------- null}
r -t 1.6047 -s 2 -d 3 -p tcp -e 1040 -c 1 -i 28 -a 1 -x {2.0 4.2 5 ------- null}
+ -t 1.6047 -s 3 -d 4 -p tcp -e 1040 -c 1 -i 28 -a 1 -x {2.0 4.2 5 ------- null}
r -t 1.60574 -s 2 -d 3 -p tcp -e 1040 -c 1 -i 29 -a 1 -x {2.0 4.2 6 ------- null}
+ -t 1.60574 -s 3 -d 4 -p tcp -e 1040 -c 1 -i 29 -a 1 -x {2.0 4.2 6 ------- null}
r -t 1.61382 -s 4 -d 3 -p ack -e 40 -c 3 -i 20 -a 3 -x {4.1 1.0 1 ------- null}
+ -t 1.61382 -s 3 -d 1 -p ack -e 40 -c 3 -i 20 -a 3 -x {4.1 1.0 1 ------- null}
- -t 1.61382 -s 3 -d 1 -p ack -e 40 -c 3 -i 20 -a 3 -x {4.1 1.0 1 ------- null}
h -t 1.61382 -s 3 -d 1 -p ack -e 40 -c 3 -i 20 -a 3 -x {4.1 1.0 -1 ------- null}
r -t 1.61396 -s 3 -d 1 -p ack -e 40 -c 3 -i 20 -a 3 -x {4.1 1.0 1 ------- null}
+ -t 1.61396 -s 1 -d 3 -p tcp -e 1040 -c 3 -i 30 -a 3 -x {1.0 4.1 3 ------- null}
- -t 1.61396 -s 1 -d 3 -p tcp -e 1040 -c 3 -i 30 -a 3 -x {1.0 4.1 3 ------- null}
h -t 1.61396 -s 1 -d 3 -p tcp -e 1040 -c 3 -i 30 -a 3 -x {1.0 4.1 -1 ------- null}
+ -t 1.61396 -s 1 -d 3 -p tcp -e 1040 -c 3 -i 31 -a 3 -x {1.0 4.1 4 ------- null}
- -t 1.615 -s 1 -d 3 -p tcp -e 1040 -c 3 -i 31 -a 3 -x {1.0 4.1 4 ------- null}
h -t 1.615 -s 1 -d 3 -p tcp -e 1040 -c 3 -i 31 -a 3 -x {1.0 4.1 -1 ------- null}
- -t 1.6151 -s 3 -d 4 -p tcp -e 1040 -c 1 -i 28 -a 1 -x {2.0 4.2 5 ------- null}
h -t 1.6151 -s 3 -d 4 -p tcp -e 1040 -c 1 -i 28 -a 1 -x {2.0 4.2 -1 ------- null}
r -t 1.6151 -s 1 -d 3 -p tcp -e 1040 -c 3 -i 30 -a 3 -x {1.0 4.1 3 ------- null}
+ -t 1.6151 -s 3 -d 4 -p tcp -e 1040 -c 3 -i 30 -a 3 -x {1.0 4.1 3 ------- null}
r -t 1.61614 -s 1 -d 3 -p tcp -e 1040 -c 3 -i 31 -a 3 -x {1.0 4.1 4 ------- null}
+ -t 1.61614 -s 3 -d 4 -p tcp -e 1040 -c 3 -i 31 -a 3 -x {1.0 4.1 4 ------- null}
r -t 1.62422 -s 4 -d 3 -p ack -e 40 -c 3 -i 21 -a 3 -x {4.1 1.0 2 ------- null}
+ -t 1.62422 -s 3 -d 1 -p ack -e 40 -c 3 -i 21 -a 3 -x {4.1 1.0 2 ------- null}
- -t 1.62422 -s 3 -d 1 -p ack -e 40 -c 3 -i 21 -a 3 -x {4.1 1.0 2 ------- null}
h -t 1.62422 -s 3 -d 1 -p ack -e 40 -c 3 -i 21 -a 3 -x {4.1 1.0 -1 ------- null}
r -t 1.62436 -s 3 -d 1 -p ack -e 40 -c 3 -i 21 -a 3 -x {4.1 1.0 2 ------- null}
+ -t 1.62436 -s 1 -d 3 -p tcp -e 1040 -c 3 -i 32 -a 3 -x {1.0 4.1 5 ------- null}
- -t 1.62436 -s 1 -d 3 -p tcp -e 1040 -c 3 -i 32 -a 3 -x {1.0 4.1 5 ------- null}
h -t 1.62436 -s 1 -d 3 -p tcp -e 1040 -c 3 -i 32 -a 3 -x {1.0 4.1 -1 ------- null}
+ -t 1.62436 -s 1 -d 3 -p tcp -e 1040 -c 3 -i 33 -a 3 -x {1.0 4.1 6 ------- null}
- -t 1.6254 -s 1 -d 3 -p tcp -e 1040 -c 3 -i 33 -a 3 -x {1.0 4.1 6 ------- null}
h -t 1.6254 -s 1 -d 3 -p tcp -e 1040 -c 3 -i 33 -a 3 -x {1.0 4.1 -1 ------- null}
- -t 1.6255 -s 3 -d 4 -p tcp -e 1040 -c 1 -i 29 -a 1 -x {2.0 4.2 6 ------- null}
h -t 1.6255 -s 3 -d 4 -p tcp -e 1040 -c 1 -i 29 -a 1 -x {2.0 4.2 -1 ------- null}
r -t 1.6255 -s 1 -d 3 -p tcp -e 1040 -c 3 -i 32 -a 3 -x {1.0 4.1 5 ------- null}
+ -t 1.6255 -s 3 -d 4 -p tcp -e 1040 -c 3 -i 32 -a 3 -x {1.0 4.1 5 ------- null}
r -t 1.62654 -s 1 -d 3 -p tcp -e 1040 -c 3 -i 33 -a 3 -x {1.0 4.1 6 ------- null}
+ -t 1.62654 -s 3 -d 4 -p tcp -e 1040 -c 3 -i 33 -a 3 -x {1.0 4.1 6 ------- null}
r -t 1.63462 -s 4 -d 3 -p ack -e 40 -c 2 -i 22 -a 2 -x {4.0 0.0 3 ------- null}
+ -t 1.63462 -s 3 -d 0 -p ack -e 40 -c 2 -i 22 -a 2 -x {4.0 0.0 3 ------- null}
- -t 1.63462 -s 3 -d 0 -p ack -e 40 -c 2 -i 22 -a 2 -x {4.0 0.0 3 ------- null}
h -t 1.63462 -s 3 -d 0 -p ack -e 40 -c 2 -i 22 -a 2 -x {4.0 0.0 -1 ------- null}
r -t 1.63476 -s 3 -d 0 -p ack -e 40 -c 2 -i 22 -a 2 -x {4.0 0.0 3 ------- null}
+ -t 1.63476 -s 0 -d 3 -p tcp -e 1040 -c 2 -i 34 -a 2 -x {0.0 4.0 7 ------- null}
- -t 1.63476 -s 0 -d 3 -p tcp -e 1040 -c 2 -i 34 -a 2 -x {0.0 4.0 7 ------- null}
h -t 1.63476 -s 0 -d 3 -p tcp -e 1040 -c 2 -i 34 -a 2 -x {0.0 4.0 -1 ------- null}
+ -t 1.63476 -s 0 -d 3 -p tcp -e 1040 -c 2 -i 35 -a 2 -x {0.0 4.0 8 ------- null}
- -t 1.6358 -s 0 -d 3 -p tcp -e 1040 -c 2 -i 35 -a 2 -x {0.0 4.0 8 ------- null}
h -t 1.6358 -s 0 -d 3 -p tcp -e 1040 -c 2 -i 35 -a 2 -x {0.0 4.0 -1 ------- null}
- -t 1.6359 -s 3 -d 4 -p tcp -e 1040 -c 3 -i 30 -a 3 -x {1.0 4.1 3 ------- null}
h -t 1.6359 -s 3 -d 4 -p tcp -e 1040 -c 3 -i 30 -a 3 -x {1.0 4.1 -1 ------- null}
r -t 1.6359 -s 0 -d 3 -p tcp -e 1040 -c 2 -i 34 -a 2 -x {0.0 4.0 7 ------- null}
+ -t 1.6359 -s 3 -d 4 -p tcp -e 1040 -c 2 -i 34 -a 2 -x {0.0 4.0 7 ------- null}
r -t 1.63694 -s 0 -d 3 -p tcp -e 1040 -c 2 -i 35 -a 2 -x {0.0 4.0 8 ------- null}
+ -t 1.63694 -s 3 -d 4 -p tcp -e 1040 -c 2 -i 35 -a 2 -x {0.0 4.0 8 ------- null}
r -t 1.64502 -s 4 -d 3 -p ack -e 40 -c 2 -i 23 -a 2 -x {4.0 0.0 4 ------- null}
+ -t 1.64502 -s 3 -d 0 -p ack -e 40 -c 2 -i 23 -a 2 -x {4.0 0.0 4 ------- null}
- -t 1.64502 -s 3 -d 0 -p ack -e 40 -c 2 -i 23 -a 2 -x {4.0 0.0 4 ------- null}
h -t 1.64502 -s 3 -d 0 -p ack -e 40 -c 2 -i 23 -a 2 -x {4.0 0.0 -1 ------- null}
r -t 1.64516 -s 3 -d 0 -p ack -e 40 -c 2 -i 23 -a 2 -x {4.0 0.0 4 ------- null}
+ -t 1.64516 -s 0 -d 3 -p tcp -e 1040 -c 2 -i 36 -a 2 -x {0.0 4.0 9 ------- null}
- -t 1.64516 -s 0 -d 3 -p tcp -e 1040 -c 2 -i 36 -a 2 -x {0.0 4.0 9 ------- null}
h -t 1.64516 -s 0 -d 3 -p tcp -e 1040 -c 2 -i 36 -a 2 -x {0.0 4.0 -1 ------- null}
+ -t 1.64516 -s 0 -d 3 -p tcp -e 1040 -c 2 -i 37 -a 2 -x {0.0 4.0 10 ------- null}
- -t 1.6462 -s 0 -d 3 -p tcp -e 1040 -c 2 -i 37 -a 2 -x {0.0 4.0 10 ------- null}
h -t 1.6462 -s 0 -d 3 -p tcp -e 1040 -c 2 -i 37 -a 2 -x {0.0 4.0 -1 ------- null}
- -t 1.6463 -s 3 -d 4 -p tcp -e 1040 -c 3 -i 31 -a 3 -x {1.0 4.1 4 ------- null}
h -t 1.6463 -s 3 -d 4 -p tcp -e 1040 -c 3 -i 31 -a 3 -x {1.0 4.1 -1 ------- null}
r -t 1.6463 -s 0 -d 3 -p tcp -e 1040 -c 2 -i 36 -a 2 -x {0.0 4.0 9 ------- null}
+ -t 1.6463 -s 3 -d 4 -p tcp -e 1040 -c 2 -i 36 -a 2 -x {0.0 4.0 9 ------- null}
r -t 1.64734 -s 0 -d 3 -p tcp -e 1040 -c 2 -i 37 -a 2 -x {0.0 4.0 10 ------- null}
+ -t 1.64734 -s 3 -d 4 -p tcp -e 1040 -c 2 -i 37 -a 2 -x {0.0 4.0 10 ------- null}
r -t 1.65542 -s 4 -d 3 -p ack -e 40 -c 2 -i 24 -a 2 -x {4.0 0.0 5 ------- null}
+ -t 1.65542 -s 3 -d 0 -p ack -e 40 -c 2 -i 24 -a 2 -x {4.0 0.0 5 ------- null}
- -t 1.65542 -s 3 -d 0 -p ack -e 40 -c 2 -i 24 -a 2 -x {4.0 0.0 5 ------- null}
h -t 1.65542 -s 3 -d 0 -p ack -e 40 -c 2 -i 24 -a 2 -x {4.0 0.0 -1 ------- null}
r -t 1.65556 -s 3 -d 0 -p ack -e 40 -c 2 -i 24 -a 2 -x {4.0 0.0 5 ------- null}
+ -t 1.65556 -s 0 -d 3 -p tcp -e 1040 -c 2 -i 38 -a 2 -x {0.0 4.0 11 ------- null}
- -t 1.65556 -s 0 -d 3 -p tcp -e 1040 -c 2 -i 38 -a 2 -x {0.0 4.0 11 ------- null}
h -t 1.65556 -s 0 -d 3 -p tcp -e 1040 -c 2 -i 38 -a 2 -x {0.0 4.0 -1 ------- null}
+ -t 1.65556 -s 0 -d 3 -p tcp -e 1040 -c 2 -i 39 -a 2 -x {0.0 4.0 12 ------- null}
- -t 1.6566 -s 0 -d 3 -p tcp -e 1040 -c 2 -i 39 -a 2 -x {0.0 4.0 12 ------- null}
h -t 1.6566 -s 0 -d 3 -p tcp -e 1040 -c 2 -i 39 -a 2 -x {0.0 4.0 -1 ------- null}
- -t 1.6567 -s 3 -d 4 -p tcp -e 1040 -c 3 -i 32 -a 3 -x {1.0 4.1 5 ------- null}
h -t 1.6567 -s 3 -d 4 -p tcp -e 1040 -c 3 -i 32 -a 3 -x {1.0 4.1 -1 ------- null}
r -t 1.6567 -s 0 -d 3 -p tcp -e 1040 -c 2 -i 38 -a 2 -x {0.0 4.0 11 ------- null}
+ -t 1.6567 -s 3 -d 4 -p tcp -e 1040 -c 2 -i 38 -a 2 -x {0.0 4.0 11 ------- null}
r -t 1.65774 -s 0 -d 3 -p tcp -e 1040 -c 2 -i 39 -a 2 -x {0.0 4.0 12 ------- null}
+ -t 1.65774 -s 3 -d 4 -p tcp -e 1040 -c 2 -i 39 -a 2 -x {0.0 4.0 12 ------- null}
r -t 1.66582 -s 4 -d 3 -p ack -e 40 -c 2 -i 25 -a 2 -x {4.0 0.0 6 ------- null}
+ -t 1.66582 -s 3 -d 0 -p ack -e 40 -c 2 -i 25 -a 2 -x {4.0 0.0 6 ------- null}
- -t 1.66582 -s 3 -d 0 -p ack -e 40 -c 2 -i 25 -a 2 -x {4.0 0.0 6 ------- null}
h -t 1.66582 -s 3 -d 0 -p ack -e 40 -c 2 -i 25 -a 2 -x {4.0 0.0 -1 ------- null}
r -t 1.66596 -s 3 -d 0 -p ack -e 40 -c 2 -i 25 -a 2 -x {4.0 0.0 6 ------- null}
+ -t 1.66596 -s 0 -d 3 -p tcp -e 1040 -c 2 -i 40 -a 2 -x {0.0 4.0 13 ------- null}
- -t 1.66596 -s 0 -d 3 -p tcp -e 1040 -c 2 -i 40 -a 2 -x {0.0 4.0 13 ------- null}
h -t 1.66596 -s 0 -d 3 -p tcp -e 1040 -c 2 -i 40 -a 2 -x {0.0 4.0 -1 ------- null}
+ -t 1.66596 -s 0 -d 3 -p tcp -e 1040 -c 2 -i 41 -a 2 -x {0.0 4.0 14 ------- null}
- -t 1.667 -s 0 -d 3 -p tcp -e 1040 -c 2 -i 41 -a 2 -x {0.0 4.0 14 ------- null}
h -t 1.667 -s 0 -d 3 -p tcp -e 1040 -c 2 -i 41 -a 2 -x {0.0 4.0 -1 ------- null}
- -t 1.6671 -s 3 -d 4 -p tcp -e 1040 -c 3 -i 33 -a 3 -x {1.0 4.1 6 ------- null}
h -t 1.6671 -s 3 -d 4 -p tcp -e 1040 -c 3 -i 33 -a 3 -x {1.0 4.1 -1 ------- null}
r -t 1.6671 -s 0 -d 3 -p tcp -e 1040 -c 2 -i 40 -a 2 -x {0.0 4.0 13 ------- null}
+ -t 1.6671 -s 3 -d 4 -p tcp -e 1040 -c 2 -i 40 -a 2 -x {0.0 4.0 13 ------- null}
r -t 1.66814 -s 0 -d 3 -p tcp -e 1040 -c 2 -i 41 -a 2 -x {0.0 4.0 14 ------- null}
+ -t 1.66814 -s 3 -d 4 -p tcp -e 1040 -c 2 -i 41 -a 2 -x {0.0 4.0 14 ------- null}
d -t 1.66814 -s 3 -d 4 -p tcp -e 1040 -c 2 -i 41 -a 2 -x {0.0 4.0 14 ------- null}
- -t 1.6775 -s 3 -d 4 -p tcp -e 1040 -c 2 -i 34 -a 2 -x {0.0 4.0 7 ------- null}
h -t 1.6775 -s 3 -d 4 -p tcp -e 1040 -c 2 -i 34 -a 2 -x {0.0 4.0 -1 ------- null}
- -t 1.6879 -s 3 -d 4 -p tcp -e 1040 -c 2 -i 35 -a 2 -x {0.0 4.0 8 ------- null}
h -t 1.6879 -s 3 -d 4 -p tcp -e 1040 -c 2 -i 35 -a 2 -x {0.0 4.0 -1 ------- null}
- -t 1.6983 -s 3 -d 4 -p tcp -e 1040 -c 2 -i 36 -a 2 -x {0.0 4.0 9 ------- null}
h -t 1.6983 -s 3 -d 4 -p tcp -e 1040 -c 2 -i 36 -a 2 -x {0.0 4.0 -1 ------- null}
r -t 1.7047 -s 3 -d 4 -p tcp -e 1040 -c 1 -i 26 -a 1 -x {2.0 4.2 3 ------- null}
+ -t 1.7047 -s 4 -d 3 -p ack -e 40 -c 1 -i 42 -a 1 -x {4.2 2.0 3 ------- null}
- -t 1.7047 -s 4 -d 3 -p ack -e 40 -c 1 -i 42 -a 1 -x {4.2 2.0 3 ------- null}
h -t 1.7047 -s 4 -d 3 -p ack -e 40 -c 1 -i 42 -a 1 -x {4.2 2.0 -1 ------- null}
- -t 1.7087 -s 3 -d 4 -p tcp -e 1040 -c 2 -i 37 -a 2 -x {0.0 4.0 10 ------- null}
h -t 1.7087 -s 3 -d 4 -p tcp -e 1040 -c 2 -i 37 -a 2 -x {0.0 4.0 -1 ------- null}
r -t 1.7151 -s 3 -d 4 -p tcp -e 1040 -c 1 -i 27 -a 1 -x {2.0 4.2 4 ------- null}
+ -t 1.7151 -s 4 -d 3 -p ack -e 40 -c 1 -i 43 -a 1 -x {4.2 2.0 4 ------- null}
- -t 1.7151 -s 4 -d 3 -p ack -e 40 -c 1 -i 43 -a 1 -x {4.2 2.0 4 ------- null}
h -t 1.7151 -s 4 -d 3 -p ack -e 40 -c 1 -i 43 -a 1 -x {4.2 2.0 -1 ------- null}
- -t 1.7191 -s 3 -d 4 -p tcp -e 1040 -c 2 -i 38 -a 2 -x {0.0 4.0 11 ------- null}
h -t 1.7191 -s 3 -d 4 -p tcp -e 1040 -c 2 -i 38 -a 2 -x {0.0 4.0 -1 ------- null}
r -t 1.7255 -s 3 -d 4 -p tcp -e 1040 -c 1 -i 28 -a 1 -x {2.0 4.2 5 ------- null}
+ -t 1.7255 -s 4 -d 3 -p ack -e 40 -c 1 -i 44 -a 1 -x {4.2 2.0 5 ------- null}
- -t 1.7255 -s 4 -d 3 -p ack -e 40 -c 1 -i 44 -a 1 -x {4.2 2.0 5 ------- null}
h -t 1.7255 -s 4 -d 3 -p ack -e 40 -c 1 -i 44 -a 1 -x {4.2 2.0 -1 ------- null}
- -t 1.7295 -s 3 -d 4 -p tcp -e 1040 -c 2 -i 39 -a 2 -x {0.0 4.0 12 ------- null}
h -t 1.7295 -s 3 -d 4 -p tcp -e 1040 -c 2 -i 39 -a 2 -x {0.0 4.0 -1 ------- null}
r -t 1.7359 -s 3 -d 4 -p tcp -e 1040 -c 1 -i 29 -a 1 -x {2.0 4.2 6 ------- null}
+ -t 1.7359 -s 4 -d 3 -p ack -e 40 -c 1 -i 45 -a 1 -x {4.2 2.0 6 ------- null}
- -t 1.7359 -s 4 -d 3 -p ack -e 40 -c 1 -i 45 -a 1 -x {4.2 2.0 6 ------- null}
h -t 1.7359 -s 4 -d 3 -p ack -e 40 -c 1 -i 45 -a 1 -x {4.2 2.0 -1 ------- null}
- -t 1.7399 -s 3 -d 4 -p tcp -e 1040 -c 2 -i 40 -a 2 -x {0.0 4.0 13 ------- null}
h -t 1.7399 -s 3 -d 4 -p tcp -e 1040 -c 2 -i 40 -a 2 -x {0.0 4.0 -1 ------- null}
r -t 1.7463 -s 3 -d 4 -p tcp -e 1040 -c 3 -i 30 -a 3 -x {1.0 4.1 3 ------- null}
+ -t 1.7463 -s 4 -d 3 -p ack -e 40 -c 3 -i 46 -a 3 -x {4.1 1.0 3 ------- null}
- -t 1.7463 -s 4 -d 3 -p ack -e 40 -c 3 -i 46 -a 3 -x {4.1 1.0 3 ------- null}
h -t 1.7463 -s 4 -d 3 -p ack -e 40 -c 3 -i 46 -a 3 -x {4.1 1.0 -1 ------- null}
r -t 1.7567 -s 3 -d 4 -p tcp -e 1040 -c 3 -i 31 -a 3 -x {1.0 4.1 4 ------- null}
+ -t 1.7567 -s 4 -d 3 -p ack -e 40 -c 3 -i 47 -a 3 -x {4.1 1.0 4 ------- null}
- -t 1.7567 -s 4 -d 3 -p ack -e 40 -c 3 -i 47 -a 3 -x {4.1 1.0 4 ------- null}
h -t 1.7567 -s 4 -d 3 -p ack -e 40 -c 3 -i 47 -a 3 -x {4.1 1.0 -1 ------- null}
r -t 1.7671 -s 3 -d 4 -p tcp -e 1040 -c 3 -i 32 -a 3 -x {1.0 4.1 5 ------- null}
+ -t 1.7671 -s 4 -d 3 -p ack -e 40 -c 3 -i 48 -a 3 -x {4.1 1.0 5 ------- null}
- -t 1.7671 -s 4 -d 3 -p ack -e 40 -c 3 -i 48 -a 3 -x {4.1 1.0 5 ------- null}
h -t 1.7671 -s 4 -d 3 -p ack -e 40 -c 3 -i 48 -a 3 -x {4.1 1.0 -1 ------- null}
r -t 1.7775 -s 3 -d 4 -p tcp -e 1040 -c 3 -i 33 -a 3 -x {1.0 4.1 6 ------- null}
+ -t 1.7775 -s 4 -d 3 -p ack -e 40 -c 3 -i 49 -a 3 -x {4.1 1.0 6 ------- null}
- -t 1.7775 -s 4 -d 3 -p ack -e 40 -c 3 -i 49 -a 3 -x {4.1 1.0 6 ------- null}
h -t 1.7775 -s 4 -d 3 -p ack -e 40 -c 3 -i 49 -a 3 -x {4.1 1.0 -1 ------- null}
r -t 1.7879 -s 3 -d 4 -p tcp -e 1040 -c 2 -i 34 -a 2 -x {0.0 4.0 7 ------- null}
+ -t 1.7879 -s 4 -d 3 -p ack -e 40 -c 2 -i 50 -a 2 -x {4.0 0.0 7 ------- null}
- -t 1.7879 -s 4 -d 3 -p ack -e 40 -c 2 -i 50 -a 2 -x {4.0 0.0 7 ------- null}
h -t 1.7879 -s 4 -d 3 -p ack -e 40 -c 2 -i 50 -a 2 -x {4.0 0.0 -1 ------- null}
r -t 1.7983 -s 3 -d 4 -p tcp -e 1040 -c 2 -i 35 -a 2 -x {0.0 4.0 8 ------- null}
+ -t 1.7983 -s 4 -d 3 -p ack -e 40 -c 2 -i 51 -a 2 -x {4.0 0.0 8 ------- null}
- -t 1.7983 -s 4 -d 3 -p ack -e 40 -c 2 -i 51 -a 2 -x {4.0 0.0 8 ------- null}
h -t 1.7983 -s 4 -d 3 -p ack -e 40 -c 2 -i 51 -a 2 -x {4.0 0.0 -1 ------- null}
r -t 1.8051 -s 4 -d 3 -p ack -e 40 -c 1 -i 42 -a 1 -x {4.2 2.0 3 ------- null}
+ -t 1.8051 -s 3 -d 2 -p ack -e 40 -c 1 -i 42 -a 1 -x {4.2 2.0 3 ------- null}
- -t 1.8051 -s 3 -d 2 -p ack -e 40 -c 1 -i 42 -a 1 -x {4.2 2.0 3 ------- null}